 vasp.6.3.2 27Jun22 (build Jan 03 2024 23:25:20) gamma-only                     
  
 executed on           IFC15_impi date 2024.07.28  11:38:40
 running   96 mpi-ranks, with    1 threads/rank
 distrk:  each k-point on   96 cores,    1 groups
 distr:  one band on NCORE=   4 cores,   24 groups


--------------------------------------------------------------------------------------------------------


 INCAR:
   ENCUT = 600.00
   EDIFF = 1.00e-06
   EDIFFG = -0.01
   IBRION = 2
   ALGO = Normal
   ISMEAR = 0
   SIGMA = 0.05
   LCHARG = .FALSE.
   LWAVE = .FALSE.
   LREAL = Auto
   NELM = 2000
   NSW = 5000
   NCORE = 4
   ISPIN = 2
   GGA = MK
   PARAM1 = 0.1234
   PARAM2 = 1.0
   AGGAC = 0.0
   LUSE_VDW = .TRUE.
   LASPH = .TRUE.

 POTCAR:    PAW_PBE C 08Apr2002                   
 POTCAR:    PAW_PBE H 15Jun2001                   
 -----------------------------------------------------------------------------
|                                                                             |
|           W    W    AA    RRRRR   N    N  II  N    N   GGGG   !!!           |
|           W    W   A  A   R    R  NN   N  II  NN   N  G    G  !!!           |
|           W    W  A    A  R    R  N N  N  II  N N  N  G       !!!           |
|           W WW W  AAAAAA  RRRRR   N  N N  II  N  N N  G  GGG   !            |
|           WW  WW  A    A  R   R   N   NN  II  N   NN  G    G                |
|           W    W  A    A  R    R  N    N  II  N    N   GGGG   !!!           |
|                                                                             |
|     You use a magnetic or noncollinear calculation, but did not specify     |
|     the initial magnetic moment with the MAGMOM tag. Note that a            |
|     default of 1 will be used for all atoms. This ferromagnetic setup       |
|     may break the symmetry of the crystal, in particular it may rule        |
|     out finding an antiferromagnetic solution. Thence, we recommend         |
|     setting the initial magnetic moment manually or verifying carefully     |
|     that this magnetic setup is desired.                                    |
|                                                                             |
 -----------------------------------------------------------------------------

 -----------------------------------------------------------------------------
|                                                                             |
|               ----> ADVICE to this user running VASP <----                  |
|                                                                             |
|     You have switched on vdW-DFT.                                           |
|     This routine was written and supplied by Jiri Klimes. We recommend      |
|     that you carefully read and cite the following publications:            |
|       J. Klimes, D.R. Bowler, A. Michelides                                 |
|          J. Phys.: Cond Matt. 22 022201 (2010)                              |
|       J. Klimes, D.R. Bowler, A. Michelides                                 |
|          Phys. Rev. B. 83, 195131 (2011)                                    |
|     and references therein.                                                 |
|                                                                             |
 -----------------------------------------------------------------------------

 POTCAR:    PAW_PBE C 08Apr2002                   
   SHA256 =  253f7b50bb8d59471dbedb8285d89021f4a42ed1a2c5d38a03a736e69125dd95 C/POTCAR              
   COPYR  = (c) Copyright 08Apr2002 Georg Kresse                                                    
   COPYR  = This file is part of the software VASP. Any use, copying, and all other rights are regul
   COPYR  = If you do not have a valid VASP license, you may not use, copy or distribute this file. 
   VRHFIN =C: s2p2                                                                                  
   LEXCH  = PE                                                                                      
   EATOM  =   147.1560 eV,   10.8157 Ry                                                             
                                                                                                    
   TITEL  = PAW_PBE C 08Apr2002                                                                     
   LULTRA =        F    use ultrasoft PP ?                                                          
   IUNSCR =        1    unscreen: 0-lin 1-nonlin 2-no                                               
   RPACOR =    1.200    partial core radius                                                         
   POMASS =   12.011; ZVAL   =    4.000    mass and valenz                                          
   RCORE  =    1.500    outmost cutoff radius                                                       
   RWIGS  =    1.630; RWIGS  =    0.863    wigner-seitz radius (au A)                               
   ENMAX  =  400.000; ENMIN  =  300.000 eV                                                          
   ICORE  =        2    local potential                                                             
   LCOR   =        T    correct aug charges                                                         
   LPAW   =        T    paw PP                                                                      
   EAUG   =  644.873                                                                                
   DEXC   =    0.000                                                                                
   RMAX   =    1.529    core radius for proj-oper                                                   
   RAUG   =    1.300    factor for augmentation sphere                                              
   RDEP   =    1.501    radius for radial grids                                                     
   RDEPT  =    1.300    core radius for aug-charge                                                  
                                                                                                    
   Atomic configuration                                                                             
    4 entries                                                                                       
     n  l   j            E        occ.                                                              
     1  0  0.50      -273.3789   2.0000                                                             
     2  0  0.50       -13.7508   2.0000                                                             
     2  1  0.50        -5.2854   2.0000                                                             
     3  2  1.50        -5.4423   0.0000                                                             
   Description                                                                                      
     l       E           TYP  RCUT    TYP  RCUT                                                     
     0    -13.7508458     23  1.200                                                                 
     0     -8.2022199     23  1.200                                                                 
     1     -5.2854383     23  1.500                                                                 
     1     34.0145650     23  1.500                                                                 
     2     -5.4423304      7  1.500                                                                 
  local pseudopotential read in
  partial core-charges read in
  partial kinetic energy density read in
  atomic valenz-charges read in
  non local Contribution for L=           0  read in
    real space projection operators read in
  non local Contribution for L=           0  read in
    real space projection operators read in
  non local Contribution for L=           1  read in
    real space projection operators read in
  non local Contribution for L=           1  read in
    real space projection operators read in
    PAW grid and wavefunctions read in
 
   number of l-projection  operators is LMAX  =           4
   number of lm-projection operators is LMMAX =           8
 
 POTCAR:    PAW_PBE H 15Jun2001                   
   SHA256 =  030f79b5d3ab3cf0e668861823c8fb652ff669f3e15e46930bd03bfd63a607b6 H/POTCAR              
   COPYR  = (c) Copyright 15Jun2001 Georg Kresse                                                    
   COPYR  = This file is part of the software VASP. Any use, copying, and all other rights are regul
   COPYR  = If you do not have a valid VASP license, you may not use, copy or distribute this file. 
   VRHFIN =H: ultrasoft test                                                                        
   LEXCH  = PE                                                                                      
   EATOM  =    12.4884 eV,    0.9179 Ry                                                             
                                                                                                    
   TITEL  = PAW_PBE H 15Jun2001                                                                     
   LULTRA =        F    use ultrasoft PP ?                                                          
   IUNSCR =        0    unscreen: 0-lin 1-nonlin 2-no                                               
   RPACOR =    0.000    partial core radius                                                         
   POMASS =    1.000; ZVAL   =    1.000    mass and valenz                                          
   RCORE  =    1.100    outmost cutoff radius                                                       
   RWIGS  =    0.700; RWIGS  =    0.370    wigner-seitz radius (au A)                               
   ENMAX  =  250.000; ENMIN  =  200.000 eV                                                          
   RCLOC  =    0.701    cutoff for local pot                                                        
   LCOR   =        T    correct aug charges                                                         
   LPAW   =        T    paw PP                                                                      
   EAUG   =  400.000                                                                                
   RMAX   =    1.123    core radius for proj-oper                                                   
   RAUG   =    1.200    factor for augmentation sphere                                              
   RDEP   =    1.112    radius for radial grids                                                     
   RDEPT  =    0.926    core radius for aug-charge                                                  
                                                                                                    
   Atomic configuration                                                                             
    2 entries                                                                                       
     n  l   j            E        occ.                                                              
     1  0  0.50        -6.4927   1.0000                                                             
     2  1  0.50        -3.4015   0.0000                                                             
   Description                                                                                      
     l       E           TYP  RCUT    TYP  RCUT                                                     
     0     -6.4927494     23  1.100                                                                 
     0      6.8029130     23  1.100                                                                 
     1     -4.0817478     23  1.100                                                                 
  local pseudopotential read in
  atomic valenz-charges read in
  non local Contribution for L=           0  read in
    real space projection operators read in
  non local Contribution for L=           0  read in
    real space projection operators read in
  non local Contribution for L=           1  read in
    real space projection operators read in
    PAW grid and wavefunctions read in
 
   number of l-projection  operators is LMAX  =           3
   number of lm-projection operators is LMMAX =           5
 
 Optimization of the real space projectors (new method)

 maximal supplied QI-value         = 25.13
 optimisation between [QCUT,QGAM] = [ 12.32, 24.88] = [ 42.47,173.37] Ry 
 Optimized for a Real-space Cutoff    1.06 Angstroem

   l    n(q)    QCUT    max X(q) W(low)/X(q) W(high)/X(q)  e(spline) 
   0      8    12.315   115.676    0.34E-03    0.18E-03    0.23E-06
   0      8    12.315    87.132    0.34E-03    0.18E-03    0.22E-06
   1      7    12.315     4.429    0.45E-03    0.12E-03    0.18E-06
   1      7    12.315     2.733    0.35E-03    0.97E-04    0.15E-06
 Optimization of the real space projectors (new method)

 maximal supplied QI-value         = 34.20
 optimisation between [QCUT,QGAM] = [ 12.31, 24.97] = [ 42.46,174.58] Ry 
 Optimized for a Real-space Cutoff    1.00 Angstroem

   l    n(q)    QCUT    max X(q) W(low)/X(q) W(high)/X(q)  e(spline) 
   0      7    12.313    19.460    0.14E-03    0.42E-03    0.16E-06
   0      7    12.313    12.209    0.12E-03    0.40E-03    0.16E-06
   1      7    12.313     4.655    0.33E-03    0.59E-03    0.89E-07
 -----------------------------------------------------------------------------
|                                                                             |
|               ----> ADVICE to this user running VASP <----                  |
|                                                                             |
|     You enforced a specific xc type in the INCAR file but a different       |
|     type was found in the POTCAR file.                                      |
|     I HOPE YOU KNOW WHAT YOU ARE DOING!                                     |
|                                                                             |
 -----------------------------------------------------------------------------

  PAW_PBE C 08Apr2002                   :
 energy of atom  1       EATOM= -147.1560
 kinetic energy error for atom=    0.0057 (will be added to EATOM!!)
  PAW_PBE H 15Jun2001                   :
 energy of atom  2       EATOM=  -12.4884
 kinetic energy error for atom=    0.0004 (will be added to EATOM!!)
 
 
 POSCAR:  C  H
  positions in direct lattice
  velocities in cartesian coordinates
 exchange correlation table for  LEXCH =       43
   RHO(1)=    0.500       N(1)  =     2000
   RHO(2)=  100.500       N(2)  =     4000

 VTST: version 4.1, (05/19/21)

 CHAIN: initializing optimizer
 
 OPT: Using VASP Conjugate-Gradient optimizer
 CHAIN: Read ICHAIN            0
 
 POSCAR:  C  H
  positions in direct lattice
  velocities in cartesian coordinates
 


--------------------------------------------------------------------------------------------------------


 ion  position               nearest neighbor table
   1  0.499  0.495  0.449-  12 1.09   6 1.40   2 1.40
   2  0.455  0.409  0.469-  11 1.09   4 1.40   1 1.40
   3  0.544  0.588  0.505-   9 1.09   6 1.40   5 1.40
   4  0.457  0.413  0.508-   8 1.09   2 1.40   5 1.40
   5  0.501  0.503  0.526-   3 1.40   4 1.40   7 1.51
   6  0.543  0.585  0.467-  10 1.09   3 1.40   1 1.40
   7  0.500  0.507  0.567-  15 1.10  14 1.10  13 1.10   5 1.51
   8  0.423  0.345  0.524-   4 1.09
   9  0.580  0.659  0.519-   3 1.09
  10  0.578  0.652  0.451-   6 1.09
  11  0.421  0.338  0.456-   2 1.09
  12  0.498  0.492  0.419-   1 1.09
  13  0.433  0.504  0.577-   7 1.10
  14  0.503  0.445  0.580-   7 1.10
  15  0.562  0.575  0.578-   7 1.10
 
  LATTYP: Found a hexagonal cell.
 ALAT       =    15.8227970706
 C/A-ratio  =     2.3015724012
  
  Lattice vectors:
  
 A1 = (   7.9113985353, -13.7029442220,   0.0000000000)
 A2 = (   7.9113985353,  13.7029442220,   0.0000000000)
 A3 = (   0.0000000000,   0.0000000000,  36.4173130480)


Analysis of symmetry for initial positions (statically):
=====================================================================
 Subroutine PRICEL returns:
 Original cell was already a primitive cell.
 

 Routine SETGRP: Setting up the symmetry group for a 
 hexagonal supercell.


 Subroutine GETGRP returns: Found  1 space group operations
 (whereof  1 operations were pure point group operations)
 out of a pool of 24 trial point group operations.


The static configuration has the point symmetry C_1 .


Analysis of symmetry for dynamics (positions and initial velocities):
=====================================================================
 Subroutine PRICEL returns:
 Original cell was already a primitive cell.
 

 Routine SETGRP: Setting up the symmetry group for a 
 hexagonal supercell.


 Subroutine GETGRP returns: Found  1 space group operations
 (whereof  1 operations were pure point group operations)
 out of a pool of 24 trial point group operations.


The dynamic configuration has the point symmetry C_1 .


Analysis of structural, dynamic, and magnetic symmetry:
=====================================================================
 Subroutine PRICEL returns:
 Original cell was already a primitive cell.
 

 Routine SETGRP: Setting up the symmetry group for a 
 hexagonal supercell.


 Subroutine GETGRP returns: Found  1 space group operations
 (whereof  1 operations were pure point group operations)
 out of a pool of 24 trial point group operations.


The overall configuration has the point symmetry C_1 .


 Subroutine INISYM returns: Found  1 space group operations
 (whereof  1 operations are pure point group operations),
 and found     1 'primitive' translations


----------------------------------------------------------------------------------------

                                     Primitive cell                                     

  volume of cell :    7895.9620

  direct lattice vectors                    reciprocal lattice vectors
     7.911398535-13.702944222  0.000000000     0.063199951 -0.036488509  0.000000000
     7.911398535 13.702944222  0.000000000     0.063199951  0.036488509  0.000000000
     0.000000000  0.000000000 36.417313048     0.000000000  0.000000000  0.027459467

  length of vectors
    15.822797071 15.822797071 36.417313048     0.072977017  0.072977017  0.027459467

  position of ions in fractional coordinates (direct lattice)
     0.498710839  0.494664753  0.448765185
     0.455464939  0.408722998  0.469387647
     0.544392067  0.588412767  0.505094697
     0.456856674  0.412919608  0.507693979
     0.501124398  0.502757474  0.526137040
     0.543317128  0.584628615  0.466778432
     0.500334988  0.507050756  0.567466569
     0.423101950  0.345240183  0.523634531
     0.579626488  0.659192943  0.518988637
     0.577773522  0.652313882  0.450930989
     0.420673630  0.337960971  0.455566075
     0.497965607  0.491503461  0.418806840
     0.433012522  0.504023283  0.577432899
     0.503417349  0.445279260  0.579897251
     0.562326113  0.575106916  0.577880912

  ion indices of the primitive-cell ions
   primitive index   ion index
                 1           1
                 2           2
                 3           3
                 4           4
                 5           5
                 6           6
                 7           7
                 8           8
                 9           9
                10          10
                11          11
                12          12
                13          13
                14          14
                15          15

----------------------------------------------------------------------------------------

 
 
 KPOINTS: K-Points                                

Automatic generation of k-mesh.
 Grid dimensions read from file:
 generate k-points for:    1    1    1

 Generating k-lattice:

  Cartesian coordinates                     Fractional coordinates (reciprocal lattice)
     0.063199951 -0.036488509  0.000000000     1.000000000  0.000000000  0.000000000
     0.063199951  0.036488509  0.000000000    -0.000000000  1.000000000  0.000000000
     0.000000000  0.000000000  0.027459467     0.000000000  0.000000000  1.000000000

  Length of vectors
     0.072977017  0.072977017  0.027459467

  Shift w.r.t. Gamma in fractional coordinates (k-lattice)
     0.000000000  0.000000000  0.000000000

 
 Subroutine IBZKPT returns following result:
 ===========================================
 
 Found      1 irreducible k-points:
 
 Following reciprocal coordinates:
            Coordinates               Weight
  0.000000  0.000000  0.000000      1.000000
 
 Following cartesian coordinates:
            Coordinates               Weight
  0.000000  0.000000  0.000000      1.000000
 


--------------------------------------------------------------------------------------------------------




 Dimension of arrays:
   k-points           NKPTS =      1   k-points in BZ     NKDIM =      1   number of bands    NBANDS=     48
   number of dos      NEDOS =    301   number of ions     NIONS =     15
   non local maximal  LDIM  =      4   non local SUM 2l+1 LMDIM =      8
   total plane-waves  NPLWV = ******
   max r-space proj   IRMAX =   1363   max aug-charges    IRDMAX=   3284
   dimension x,y,z NGX =    96 NGY =   96 NGZ =  224
   dimension x,y,z NGXF=   192 NGYF=  192 NGZF=  448
   support grid    NGXF=   192 NGYF=  192 NGZF=  448
   ions per type =               7   8
   NGX,Y,Z   is equivalent  to a cutoff of  10.09, 10.09, 10.23 a.u.
   NGXF,Y,Z  is equivalent  to a cutoff of  20.17, 20.17, 20.45 a.u.

 SYSTEM =  unknown system                          
 POSCAR =   C  H                                   

 Startparameter for this run:
   NWRITE =      2    write-flag & timer
   PREC   = normal    normal or accurate (medium, high low for compatibility)
   ISTART =      0    job   : 0-new  1-cont  2-samecut
   ICHARG =      2    charge: 1-file 2-atom 10-const
   ISPIN  =      2    spin polarized calculation?
   LNONCOLLINEAR =      F non collinear calculations
   LSORBIT =      F    spin-orbit coupling
   INIWAV =      1    electr: 0-lowe 1-rand  2-diag
   LASPH  =      T    aspherical Exc in radial PAW
 Electronic Relaxation 1
   ENCUT  =  600.0 eV  44.10 Ry    6.64 a.u.  31.60 31.60 72.73*2*pi/ulx,y,z
   ENINI  =  600.0     initial cutoff
   ENAUG  =  644.9 eV  augmentation charge cutoff
   NELM   =   2000;   NELMIN=  2; NELMDL=  0     # of ELM steps 
   EDIFF  = 0.1E-05   stopping-criterion for ELM
   LREAL  =      T    real-space projection
   NLSPLINE    = F    spline interpolate recip. space projectors
   LCOMPAT=      F    compatible to vasp.4.4
   GGA_COMPAT  = T    GGA compatible to vasp.4.4-vasp.4.6
   LMAXPAW     = -100 max onsite density
   LMAXMIX     =    2 max onsite mixed and CHGCAR
   VOSKOWN=      0    Vosko Wilk Nusair interpolation
   ROPT   =   -0.00050  -0.00050
 Ionic relaxation
   EDIFFG = -.1E-01   stopping-criterion for IOM
   NSW    =   5000    number of steps for IOM
   NBLOCK =      1;   KBLOCK =   5000    inner block; outer block 
   IBRION =      2    ionic relax: 0-MD 1-quasi-New 2-CG
   NFREE  =      1    steps in history (QN), initial steepest desc. (CG)
   ISIF   =      2    stress and relaxation
   IWAVPR =     11    prediction:  0-non 1-charg 2-wave 3-comb
   ISYM   =      2    0-nonsym 1-usesym 2-fastsym
   LCORR  =      T    Harris-Foulkes like correction to forces

   POTIM  = 0.5000    time-step for ionic-motion
   TEIN   =    0.0    initial temperature
   TEBEG  =    0.0;   TEEND  =   0.0 temperature during run
   SMASS  =  -3.00    Nose mass-parameter (am)
   estimated Nose-frequenzy (Omega)   =  0.10E-29 period in steps = 0.13E+47 mass=  -0.572E-26a.u.
   SCALEE = 1.0000    scale energy and forces
   NPACO  =    256;   APACO  = 10.0  distance and # of slots for P.C.
   PSTRESS=    0.0 pullay stress

  Mass of Ions in am
   POMASS =  12.01  1.00
  Ionic Valenz
   ZVAL   =   4.00  1.00
  Atomic Wigner-Seitz radii
   RWIGS  =  -1.00 -1.00
  virtual crystal weights 
   VCA    =   1.00  1.00
   NELECT =      36.0000    total number of electrons
   NUPDOWN=      -1.0000    fix difference up-down

 DOS related values:
   EMIN   =  10.00;   EMAX   =-10.00  energy-range for DOS
   EFERMI =   0.00
   ISMEAR =     0;   SIGMA  =   0.05  broadening in eV -4-tet -1-fermi 0-gaus

 Electronic relaxation 2 (details)
   IALGO  =     38    algorithm
   LDIAG  =      T    sub-space diagonalisation (order eigenvalues)
   LSUBROT=      F    optimize rotation matrix (better conditioning)
   TURBO    =      0    0=normal 1=particle mesh
   IRESTART =      0    0=no restart 2=restart with 2 vectors
   NREBOOT  =      0    no. of reboots
   NMIN     =      0    reboot dimension
   EREF     =   0.00    reference energy to select bands
   IMIX   =      4    mixing-type and parameters
     AMIX     =   0.40;   BMIX     =  1.00
     AMIX_MAG =   1.60;   BMIX_MAG =  1.00
     AMIN     =   0.10
     WC   =   100.;   INIMIX=   1;  MIXPRE=   1;  MAXMIX= -45

 Intra band minimization:
   WEIMIN = 0.0010     energy-eigenvalue tresh-hold
   EBREAK =  0.52E-08  absolut break condition
   DEPER  =   0.30     relativ break condition  

   TIME   =   0.40     timestep for ELM

  volume/ion in A,a.u.               =     526.40      3552.31
  Fermi-wavevector in a.u.,A,eV,Ry     =   0.271461  0.512987  1.002627  0.073691
  Thomas-Fermi vector in A             =   1.110983
 
 Write flags
   LWAVE        =      F    write WAVECAR
   LDOWNSAMPLE  =      F    k-point downsampling of WAVECAR
   LCHARG       =      F    write CHGCAR
   LVTOT        =      F    write LOCPOT, total local potential
   LVHAR        =      F    write LOCPOT, Hartree potential only
   LELF         =      F    write electronic localiz. function (ELF)
   LORBIT       =      0    0 simple, 1 ext, 2 COOP (PROOUT), +10 PAW based schemes


 Dipole corrections
   LMONO  =      F    monopole corrections only (constant potential shift)
   LDIPOL =      F    correct potential (dipole corrections)
   IDIPOL =      0    1-x, 2-y, 3-z, 4-all directions 
   EPSILON=  1.0000000 bulk dielectric constant

 Exchange correlation treatment:
   GGA     =    MK    GGA type
   LEXCH   =    43    internal setting for exchange type
   LIBXC   =     F    Libxc                    
   VOSKOWN =     0    Vosko Wilk Nusair interpolation
   LHFCALC =     F    Hartree Fock is set to
   LHFONE  =     F    Hartree Fock one center treatment
   AEXX    =    0.0000 exact exchange contribution

 vdW DFT:
   LUSE_VDW   =     T    switch on vdW DFT
   Zab_VDW    =-.8491    correlation parameter
   PARAM1     =0.1234
   PARAM2     =1.0000
   PARAM3     =0.0000
   -- rVV10 --
   BPARAM     = 6.3000
   CPARAM     = 0.0093

 Linear response parameters
   LEPSILON=     F    determine dielectric tensor
   LRPA    =     F    only Hartree local field effects (RPA)
   LNABLA  =     F    use nabla operator in PAW spheres
   LVEL    =     F    velocity operator in full k-point grid
   CSHIFT  =0.1000    complex shift for real part using Kramers Kronig
   OMEGAMAX=  -1.0    maximum frequency
   DEG_THRESHOLD= 0.2000000E-02 threshold for treating states as degnerate
   RTIME   =   -0.100 relaxation time in fs
  (WPLASMAI=    0.000 imaginary part of plasma frequency in eV, 0.658/RTIME)
   DFIELD  = 0.0000000 0.0000000 0.0000000 field for delta impulse in time
 
  Optional k-point grid parameters
   LKPOINTS_OPT  =     F    use optional k-point grid
   KPOINTS_OPT_MODE=     1    mode for optional k-point grid
 
 Orbital magnetization related:
   ORBITALMAG=     F  switch on orbital magnetization
   LCHIMAG   =     F  perturbation theory with respect to B field
   DQ        =  0.001000  dq finite difference perturbation B field
   LLRAUG    =     F  two centre corrections for induced B field



--------------------------------------------------------------------------------------------------------


 conjugate gradient relaxation of ions
 charge density and potential will be updated during run
 spin polarized calculation
 Variant of blocked Davidson
 Davidson routine will perform the subspace rotation
 perform sub-space diagonalisation
    after iterative eigenvector-optimisation
 modified Broyden-mixing scheme, WC =      100.0
 initial mixing is a Kerker type mixing with AMIX =  0.4000 and BMIX =      1.0000
 Hartree-type preconditioning will be used
 using additional bands           30
 real space projection scheme for non local part
 use partial core corrections
 calculate Harris-corrections to forces 
   (improved forces if not selfconsistent)
 use gradient corrections 
 use of overlap-Matrix (Vanderbilt PP)
 Gauss-broadening in eV      SIGMA  =   0.05


--------------------------------------------------------------------------------------------------------


  energy-cutoff  :      600.00
  volume of cell :     7895.96
      direct lattice vectors                 reciprocal lattice vectors
     7.911398535-13.702944222  0.000000000     0.063199951 -0.036488509  0.000000000
     7.911398535 13.702944222  0.000000000     0.063199951  0.036488509  0.000000000
     0.000000000  0.000000000 36.417313048     0.000000000  0.000000000  0.027459467

  length of vectors
    15.822797071 15.822797071 36.417313048     0.072977017  0.072977017  0.027459467


 
 k-points in units of 2pi/SCALE and weight: K-Points                                
   0.00000000  0.00000000  0.00000000       1.000
 
 k-points in reciprocal lattice and weights: K-Points                                
   0.00000000  0.00000000  0.00000000       1.000
 
 position of ions in fractional coordinates (direct lattice) 
   0.49871084  0.49466475  0.44876518
   0.45546494  0.40872300  0.46938765
   0.54439207  0.58841277  0.50509470
   0.45685667  0.41291961  0.50769398
   0.50112440  0.50275747  0.52613704
   0.54331713  0.58462862  0.46677843
   0.50033499  0.50705076  0.56746657
   0.42310195  0.34524018  0.52363453
   0.57962649  0.65919294  0.51898864
   0.57777352  0.65231388  0.45093099
   0.42067363  0.33796097  0.45556608
   0.49796561  0.49150346  0.41880684
   0.43301252  0.50402328  0.57743290
   0.50341735  0.44527926  0.57989725
   0.56232611  0.57510692  0.57788091
 
 position of ions in cartesian coordinates  (Angst):
   7.85899021 -0.05544329 16.34282222
   6.83693519 -0.64050221 17.09383688
   8.96207051  0.60321320 18.39419171
   6.88114680 -0.60206717 18.48885057
   7.94210957  0.02237795 19.16049730
   8.92362830  0.56608901 16.99881626
   7.96983010  0.09202579 20.66560770
   6.07866083 -1.06693546 19.06936262
   9.80079423  1.09029470 18.90017168
   9.73171169  1.02142240 16.42169499
   6.00186067 -1.13340695 16.59049237
   7.82808413 -0.08855043 15.25181980
   7.41326369  0.97305649 21.02855464
   7.50551697 -0.79666299 21.11829971
   8.99868599  0.17513463 21.04487007
 


--------------------------------------------------------------------------------------------------------


 use parallel FFT for orbitals z direction half grid
 k-point   1 :   0.0000 0.0000 0.0000  plane waves:  131815

 maximum and minimum number of plane-waves per node :     32957    32949

 maximum number of plane-waves:    131815
 maximum index in each direction: 
   IXMAX=   31   IYMAX=   31   IZMAX=   72
   IXMIN=  -31   IYMIN=  -31   IZMIN=    0


 real space projection operators:
  total allocation   :        891.22 KBytes
  max/ min on nodes  :        227.34        220.37


 parallel 3D FFT for wavefunctions:
    minimum data exchange during FFTs selected (reduces bandwidth)
 parallel 3D FFT for charge:
    minimum data exchange during FFTs selected (reduces bandwidth)


 total amount of memory used by VASP MPI-rank0   104446. kBytes
=======================================================================

   base      :      30000. kBytes
   nonlr-proj:        270. kBytes
   fftplans  :      16881. kBytes
   grid      :      55173. kBytes
   one-center:         12. kBytes
   wavefun   :       2110. kBytes
 
     INWAV:  cpu time      0.0003: real time      0.0005
 Broyden mixing: mesh for mixing (old mesh)
   NGX = 63   NGY = 63   NGZ =145
  (NGX  =192   NGY  =192   NGZ  =448)
  gives a total of 575505 points

 initial charge density was supplied:
 charge density of overlapping atoms calculated
 number of electron      36.0000000 magnetization      15.0000000
 keeping initial charge density in first step


--------------------------------------------------------------------------------------------------------


 Maximum index for non-local projection operator          318
 Maximum index for augmentation-charges          231 (set IRDMAX)


--------------------------------------------------------------------------------------------------------


 First call to EWALD:  gamma=   0.089
 Maximum number of real-space cells 4x 4x 2
 Maximum number of reciprocal cells 2x 2x 5

    FEWALD:  cpu time      0.0083: real time      0.0083


--------------------------------------- Iteration      1(   1)  ---------------------------------------


vdW kernel read from vdw_kernel.bindat
  0.0000  0.2424  0.5071  0.7962  1.1119  1.4567  1.8333  2.2446  2.6937  3.1842
  3.7199  4.3049  4.9438  5.6415  6.4036  7.2358  8.1446  9.1372 10.2212 11.4050
 12.6979 14.1099 15.6519 17.3360 19.1751 21.1837 23.3773 25.7729 28.3892 31.2465
 34.3669 37.7748 41.4965 45.5611 50.0000
 
    POTLOK:  cpu time      9.1427: real time      9.3116
    SETDIJ:  cpu time      1.2758: real time      1.2777
     EDDAV:  cpu time      1.2244: real time      1.2786
       DOS:  cpu time      0.0142: real time      0.0143
    --------------------------------------------
      LOOP:  cpu time     11.6573: real time     11.8823

 eigenvalue-minimisations  :   288
 total energy-change (2. order) : 0.1704222E+03  (-0.9577734E+03)
 number of electron      36.0000000 magnetization      15.0000000
 augmentation part       36.0000000 magnetization      15.0000000

 Free energy of the ion-electron system (eV)
  ---------------------------------------------------
  alpha Z        PSCENC =         0.74428668
  Ewald energy   TEWEN  =      2897.07888037
  -Hartree energ DENC   =     -3618.53541357
  -exchange      EXHF   =         0.00000000
  -V(xc)+E(xc)   XCENC  =       113.10683453
  PAW double counting   =       775.19225445     -776.94623748
  entropy T*S    EENTRO =        -0.02957500
  eigenvalues    EBANDS =      -357.46078450
  atomic energy  EATOM  =      1137.27190959
  Solvation  Ediel_sol  =         0.00000000
  ---------------------------------------------------
  free energy    TOTEN  =       170.42215506 eV

  energy without entropy =      170.45173007  energy(sigma->0) =      170.43694257


--------------------------------------------------------------------------------------------------------




--------------------------------------- Iteration      1(   2)  ---------------------------------------


     EDDAV:  cpu time      1.2161: real time      1.2192
       DOS:  cpu time      0.0009: real time      0.0008
    --------------------------------------------
      LOOP:  cpu time      1.2170: real time      1.2200

 eigenvalue-minimisations  :   336
 total energy-change (2. order) :-0.2216510E+03  (-0.2124779E+03)
 number of electron      36.0000000 magnetization      15.0000000
 augmentation part       36.0000000 magnetization      15.0000000

 Free energy of the ion-electron system (eV)
  ---------------------------------------------------
  alpha Z        PSCENC =         0.74428668
  Ewald energy   TEWEN  =      2897.07888037
  -Hartree energ DENC   =     -3618.53541357
  -exchange      EXHF   =         0.00000000
  -V(xc)+E(xc)   XCENC  =       113.10683453
  PAW double counting   =       775.19225445     -776.94623748
  entropy T*S    EENTRO =        -0.00000000
  eigenvalues    EBANDS =      -579.14132410
  atomic energy  EATOM  =      1137.27190959
  Solvation  Ediel_sol  =         0.00000000
  ---------------------------------------------------
  free energy    TOTEN  =       -51.22880953 eV

  energy without entropy =      -51.22880953  energy(sigma->0) =      -51.22880953


--------------------------------------------------------------------------------------------------------




--------------------------------------- Iteration      1(   3)  ---------------------------------------


     EDDAV:  cpu time      1.0886: real time      1.0906
       DOS:  cpu time      0.0009: real time      0.0009
    --------------------------------------------
      LOOP:  cpu time      1.0895: real time      1.0915

 eigenvalue-minimisations  :   288
 total energy-change (2. order) :-0.2943881E+02  (-0.2936886E+02)
 number of electron      36.0000000 magnetization      15.0000000
 augmentation part       36.0000000 magnetization      15.0000000

 Free energy of the ion-electron system (eV)
  ---------------------------------------------------
  alpha Z        PSCENC =         0.74428668
  Ewald energy   TEWEN  =      2897.07888037
  -Hartree energ DENC   =     -3618.53541357
  -exchange      EXHF   =         0.00000000
  -V(xc)+E(xc)   XCENC  =       113.10683453
  PAW double counting   =       775.19225445     -776.94623748
  entropy T*S    EENTRO =        -0.00000000
  eigenvalues    EBANDS =      -608.58013308
  atomic energy  EATOM  =      1137.27190959
  Solvation  Ediel_sol  =         0.00000000
  ---------------------------------------------------
  free energy    TOTEN  =       -80.66761851 eV

  energy without entropy =      -80.66761851  energy(sigma->0) =      -80.66761851


--------------------------------------------------------------------------------------------------------




--------------------------------------- Iteration      1(   4)  ---------------------------------------


     EDDAV:  cpu time      1.0958: real time      1.0971
       DOS:  cpu time      0.0012: real time      0.0012
    --------------------------------------------
      LOOP:  cpu time      1.0970: real time      1.0984

 eigenvalue-minimisations  :   288
 total energy-change (2. order) :-0.1086469E+01  (-0.1085308E+01)
 number of electron      36.0000000 magnetization      15.0000000
 augmentation part       36.0000000 magnetization      15.0000000

 Free energy of the ion-electron system (eV)
  ---------------------------------------------------
  alpha Z        PSCENC =         0.74428668
  Ewald energy   TEWEN  =      2897.07888037
  -Hartree energ DENC   =     -3618.53541357
  -exchange      EXHF   =         0.00000000
  -V(xc)+E(xc)   XCENC  =       113.10683453
  PAW double counting   =       775.19225445     -776.94623748
  entropy T*S    EENTRO =        -0.00000000
  eigenvalues    EBANDS =      -609.66660182
  atomic energy  EATOM  =      1137.27190959
  Solvation  Ediel_sol  =         0.00000000
  ---------------------------------------------------
  free energy    TOTEN  =       -81.75408725 eV

  energy without entropy =      -81.75408725  energy(sigma->0) =      -81.75408725


--------------------------------------------------------------------------------------------------------




--------------------------------------- Iteration      1(   5)  ---------------------------------------


     EDDAV:  cpu time      1.0851: real time      1.0863
       DOS:  cpu time      0.0009: real time      0.0009
    CHARGE:  cpu time      0.2275: real time      0.2275
    MIXING:  cpu time      0.0377: real time      0.0384
    --------------------------------------------
      LOOP:  cpu time      1.3512: real time      1.3531

 eigenvalue-minimisations  :   288
 total energy-change (2. order) :-0.2862083E-01  (-0.2861899E-01)
 number of electron      35.9999999 magnetization      14.3062293
 augmentation part        0.9771366 magnetization      14.3146770

 Broyden mixing:
  rms(total) = 0.25205E+01    rms(broyden)= 0.25204E+01
  rms(prec ) = 0.25540E+01
  weight for this iteration     100.00

 Free energy of the ion-electron system (eV)
  ---------------------------------------------------
  alpha Z        PSCENC =         0.74428668
  Ewald energy   TEWEN  =      2897.07888037
  -Hartree energ DENC   =     -3618.53541357
  -exchange      EXHF   =         0.00000000
  -V(xc)+E(xc)   XCENC  =       113.10683453
  PAW double counting   =       775.19225445     -776.94623748
  entropy T*S    EENTRO =        -0.00000000
  eigenvalues    EBANDS =      -609.69522265
  atomic energy  EATOM  =      1137.27190959
  Solvation  Ediel_sol  =         0.00000000
  ---------------------------------------------------
  free energy    TOTEN  =       -81.78270808 eV

  energy without entropy =      -81.78270808  energy(sigma->0) =      -81.78270808


--------------------------------------------------------------------------------------------------------




--------------------------------------- Iteration      1(   6)  ---------------------------------------


    POTLOK:  cpu time      8.0455: real time      8.0562
    SETDIJ:  cpu time      1.3057: real time      1.3077
     EDDAV:  cpu time      1.0907: real time      1.0929
       DOS:  cpu time      0.0014: real time      0.0014
    CHARGE:  cpu time      0.1631: real time      0.1631
    MIXING:  cpu time      0.0253: real time      0.0390
    --------------------------------------------
      LOOP:  cpu time     10.6317: real time     10.6602

 eigenvalue-minimisations  :   264
 total energy-change (2. order) : 0.3434945E+01  (-0.2803359E+01)
 number of electron      35.9999999 magnetization      13.6187344
 augmentation part        0.9096949 magnetization      13.5875242

 Broyden mixing:
  rms(total) = 0.11518E+01    rms(broyden)= 0.11518E+01
  rms(prec ) = 0.11679E+01
  weight for this iteration     100.00

 eigenvalues of (default mixing * dielectric matrix)
  average eigenvalue GAMMA=   0.8983
  0.8983

 Free energy of the ion-electron system (eV)
  ---------------------------------------------------
  alpha Z        PSCENC =         0.74428668
  Ewald energy   TEWEN  =      2897.07888037
  -Hartree energ DENC   =     -3697.76294653
  -exchange      EXHF   =         0.00000000
  -V(xc)+E(xc)   XCENC  =       117.92331347
  PAW double counting   =      1463.79181954    -1466.16120554
  entropy T*S    EENTRO =        -0.00000000
  eigenvalues    EBANDS =      -531.23382031
  atomic energy  EATOM  =      1137.27190959
  Solvation  Ediel_sol  =         0.00000000
  ---------------------------------------------------
  free energy    TOTEN  =       -78.34776273 eV

  energy without entropy =      -78.34776273  energy(sigma->0) =      -78.34776273


--------------------------------------------------------------------------------------------------------




--------------------------------------- Iteration      1(   7)  ---------------------------------------


    POTLOK:  cpu time      8.0154: real time      8.0317
    SETDIJ:  cpu time      1.2986: real time      1.3000
     EDDAV:  cpu time      1.2433: real time      1.2446
       DOS:  cpu time      0.0010: real time      0.0011
    CHARGE:  cpu time      0.1627: real time      0.1627
    MIXING:  cpu time      0.0221: real time      0.0243
    --------------------------------------------
      LOOP:  cpu time     10.7433: real time     10.7646

 eigenvalue-minimisations  :   336
 total energy-change (2. order) :-0.2687286E+01  (-0.5668264E+00)
 number of electron      35.9999999 magnetization      12.6866773
 augmentation part        0.8701164 magnetization      12.6769365

 Broyden mixing:
  rms(total) = 0.70867E+00    rms(broyden)= 0.70866E+00
  rms(prec ) = 0.71589E+00
  weight for this iteration     100.00

 eigenvalues of (default mixing * dielectric matrix)
  average eigenvalue GAMMA=   1.0917
  0.8067  1.3766

 Free energy of the ion-electron system (eV)
  ---------------------------------------------------
  alpha Z        PSCENC =         0.74428668
  Ewald energy   TEWEN  =      2897.07888037
  -Hartree energ DENC   =     -3738.27540733
  -exchange      EXHF   =         0.00000000
  -V(xc)+E(xc)   XCENC  =       116.86611068
  PAW double counting   =      2011.09223295    -2013.63586735
  entropy T*S    EENTRO =        -0.00000000
  eigenvalues    EBANDS =      -492.17719463
  atomic energy  EATOM  =      1137.27190959
  Solvation  Ediel_sol  =         0.00000000
  ---------------------------------------------------
  free energy    TOTEN  =       -81.03504905 eV

  energy without entropy =      -81.03504905  energy(sigma->0) =      -81.03504905


--------------------------------------------------------------------------------------------------------




--------------------------------------- Iteration      1(   8)  ---------------------------------------


    POTLOK:  cpu time      7.8882: real time      7.8988
    SETDIJ:  cpu time      1.3023: real time      1.3031
     EDDAV:  cpu time      1.1676: real time      1.1697
       DOS:  cpu time      0.0012: real time      0.0012
    CHARGE:  cpu time      0.1636: real time      0.1636
    MIXING:  cpu time      0.0223: real time      0.0223
    --------------------------------------------
      LOOP:  cpu time     10.5450: real time     10.5586

 eigenvalue-minimisations  :   312
 total energy-change (2. order) :-0.7289513E+00  (-0.9756208E-01)
 number of electron      35.9999999 magnetization      11.7532264
 augmentation part        0.8498178 magnetization      11.7465452

 Broyden mixing:
  rms(total) = 0.37814E+00    rms(broyden)= 0.37814E+00
  rms(prec ) = 0.38096E+00
  weight for this iteration     100.00

 eigenvalues of (default mixing * dielectric matrix)
  average eigenvalue GAMMA=   1.2445
  2.0726  0.9410  0.7198

 Free energy of the ion-electron system (eV)
  ---------------------------------------------------
  alpha Z        PSCENC =         0.74428668
  Ewald energy   TEWEN  =      2897.07888037
  -Hartree energ DENC   =     -3768.22282977
  -exchange      EXHF   =         0.00000000
  -V(xc)+E(xc)   XCENC  =       117.50997751
  PAW double counting   =      2595.36289840    -2597.93546806
  entropy T*S    EENTRO =        -0.00000000
  eigenvalues    EBANDS =      -463.57365505
  atomic energy  EATOM  =      1137.27190959
  Solvation  Ediel_sol  =         0.00000000
  ---------------------------------------------------
  free energy    TOTEN  =       -81.76400033 eV

  energy without entropy =      -81.76400033  energy(sigma->0) =      -81.76400033


--------------------------------------------------------------------------------------------------------




--------------------------------------- Iteration      1(   9)  ---------------------------------------


    POTLOK:  cpu time      8.2101: real time      8.2187
    SETDIJ:  cpu time      1.3004: real time      1.3013
     EDDAV:  cpu time      1.1796: real time      1.1817
       DOS:  cpu time      0.0012: real time      0.0012
    CHARGE:  cpu time      0.1624: real time      0.1624
    MIXING:  cpu time      0.0230: real time      0.0230
    --------------------------------------------
      LOOP:  cpu time     10.8766: real time     10.8882

 eigenvalue-minimisations  :   312
 total energy-change (2. order) :-0.5279951E+00  (-0.1548212E-01)
 number of electron      35.9999999 magnetization      11.0161036
 augmentation part        0.8445157 magnetization      11.0103961

 Broyden mixing:
  rms(total) = 0.23108E+00    rms(broyden)= 0.23108E+00
  rms(prec ) = 0.23262E+00
  weight for this iteration     100.00

 eigenvalues of (default mixing * dielectric matrix)
  average eigenvalue GAMMA=   1.2842
  2.3787  1.2629  0.8320  0.6631

 Free energy of the ion-electron system (eV)
  ---------------------------------------------------
  alpha Z        PSCENC =         0.74428668
  Ewald energy   TEWEN  =      2897.07888037
  -Hartree energ DENC   =     -3782.56992050
  -exchange      EXHF   =         0.00000000
  -V(xc)+E(xc)   XCENC  =       117.72685254
  PAW double counting   =      2908.49143820    -2911.01391976
  entropy T*S    EENTRO =        -0.00000000
  eigenvalues    EBANDS =      -450.02152261
  atomic energy  EATOM  =      1137.27190959
  Solvation  Ediel_sol  =         0.00000000
  ---------------------------------------------------
  free energy    TOTEN  =       -82.29199548 eV

  energy without entropy =      -82.29199548  energy(sigma->0) =      -82.29199548


--------------------------------------------------------------------------------------------------------




--------------------------------------- Iteration      1(  10)  ---------------------------------------


    POTLOK:  cpu time      8.1261: real time      8.1349
    SETDIJ:  cpu time      1.2999: real time      1.3007
     EDDAV:  cpu time      1.0163: real time      1.0201
       DOS:  cpu time      0.0012: real time      0.0012
    CHARGE:  cpu time      0.1622: real time      0.1622
    MIXING:  cpu time      0.0247: real time      0.0247
    --------------------------------------------
      LOOP:  cpu time     10.6304: real time     10.6438

 eigenvalue-minimisations  :   264
 total energy-change (2. order) :-0.3211544E+00  (-0.2697831E-02)
 number of electron      35.9999999 magnetization       9.8766274
 augmentation part        0.8442672 magnetization       9.8736490

 Broyden mixing:
  rms(total) = 0.18408E+00    rms(broyden)= 0.18408E+00
  rms(prec ) = 0.18517E+00
  weight for this iteration     100.00

 eigenvalues of (default mixing * dielectric matrix)
  average eigenvalue GAMMA=   1.2964
  2.4701  1.5903  0.9460  0.8367  0.6388

 Free energy of the ion-electron system (eV)
  ---------------------------------------------------
  alpha Z        PSCENC =         0.74428668
  Ewald energy   TEWEN  =      2897.07888037
  -Hartree energ DENC   =     -3787.40280871
  -exchange      EXHF   =         0.00000000
  -V(xc)+E(xc)   XCENC  =       117.58874395
  PAW double counting   =      2960.20514801    -2962.68715948
  entropy T*S    EENTRO =        -0.00000000
  eigenvalues    EBANDS =      -445.41215028
  atomic energy  EATOM  =      1137.27190959
  Solvation  Ediel_sol  =         0.00000000
  ---------------------------------------------------
  free energy    TOTEN  =       -82.61314988 eV

  energy without entropy =      -82.61314988  energy(sigma->0) =      -82.61314988


--------------------------------------------------------------------------------------------------------




--------------------------------------- Iteration      1(  11)  ---------------------------------------


    POTLOK:  cpu time      8.0746: real time      8.0852
    SETDIJ:  cpu time      1.3032: real time      1.3040
     EDDAV:  cpu time      1.1363: real time      1.1374
       DOS:  cpu time      0.0023: real time      0.0023
    CHARGE:  cpu time      0.1831: real time      0.1842
    MIXING:  cpu time      0.0268: real time      0.0268
    --------------------------------------------
      LOOP:  cpu time     10.7263: real time     10.7399

 eigenvalue-minimisations  :   288
 total energy-change (2. order) :-0.2643612E+00  (-0.1841833E-02)
 number of electron      35.9999999 magnetization       8.1822281
 augmentation part        0.8441898 magnetization       8.1801059

 Broyden mixing:
  rms(total) = 0.14784E+00    rms(broyden)= 0.14784E+00
  rms(prec ) = 0.14843E+00
  weight for this iteration     100.00

 eigenvalues of (default mixing * dielectric matrix)
  average eigenvalue GAMMA=   1.4682
  3.0964  2.2529  1.2332  0.8445  0.7568  0.6254

 Free energy of the ion-electron system (eV)
  ---------------------------------------------------
  alpha Z        PSCENC =         0.74428668
  Ewald energy   TEWEN  =      2897.07888037
  -Hartree energ DENC   =     -3792.98423150
  -exchange      EXHF   =         0.00000000
  -V(xc)+E(xc)   XCENC  =       117.44594908
  PAW double counting   =      2941.77914668    -2944.23351695
  entropy T*S    EENTRO =        -0.00000000
  eigenvalues    EBANDS =      -439.97993507
  atomic energy  EATOM  =      1137.27190959
  Solvation  Ediel_sol  =         0.00000000
  ---------------------------------------------------
  free energy    TOTEN  =       -82.87751112 eV

  energy without entropy =      -82.87751112  energy(sigma->0) =      -82.87751112


--------------------------------------------------------------------------------------------------------




--------------------------------------- Iteration      1(  12)  ---------------------------------------


    POTLOK:  cpu time      7.9219: real time      7.9331
    SETDIJ:  cpu time      1.3019: real time      1.3027
     EDDAV:  cpu time      1.0293: real time      1.0305
       DOS:  cpu time      0.0011: real time      0.0011
    CHARGE:  cpu time      0.1625: real time      0.1625
    MIXING:  cpu time      0.0265: real time      0.0265
    --------------------------------------------
      LOOP:  cpu time     10.4433: real time     10.4566

 eigenvalue-minimisations  :   264
 total energy-change (2. order) :-0.1899517E+00  (-0.3236904E-02)
 number of electron      35.9999999 magnetization       6.4853437
 augmentation part        0.8436999 magnetization       6.4843735

 Broyden mixing:
  rms(total) = 0.11006E+00    rms(broyden)= 0.11006E+00
  rms(prec ) = 0.11030E+00
  weight for this iteration     100.00

 eigenvalues of (default mixing * dielectric matrix)
  average eigenvalue GAMMA=   1.7054
  4.8825  2.3364  1.5254  1.0204  0.8407  0.7100  0.6224

 Free energy of the ion-electron system (eV)
  ---------------------------------------------------
  alpha Z        PSCENC =         0.74428668
  Ewald energy   TEWEN  =      2897.07888037
  -Hartree energ DENC   =     -3800.32489657
  -exchange      EXHF   =         0.00000000
  -V(xc)+E(xc)   XCENC  =       117.37863361
  PAW double counting   =      2904.03673548    -2906.47849436
  entropy T*S    EENTRO =        -0.00000000
  eigenvalues    EBANDS =      -432.77451758
  atomic energy  EATOM  =      1137.27190959
  Solvation  Ediel_sol  =         0.00000000
  ---------------------------------------------------
  free energy    TOTEN  =       -83.06746278 eV

  energy without entropy =      -83.06746278  energy(sigma->0) =      -83.06746278


--------------------------------------------------------------------------------------------------------




--------------------------------------- Iteration      1(  13)  ---------------------------------------


    POTLOK:  cpu time      8.0283: real time      8.0379
    SETDIJ:  cpu time      1.3020: real time      1.3035
     EDDAV:  cpu time      0.7902: real time      0.7914
       DOS:  cpu time      0.0011: real time      0.0011
    CHARGE:  cpu time      0.1609: real time      0.1610
    MIXING:  cpu time      0.0289: real time      0.0289
    --------------------------------------------
      LOOP:  cpu time     10.3113: real time     10.3237

 eigenvalue-minimisations  :   192
 total energy-change (2. order) :-0.1139970E+00  (-0.1966249E-02)
 number of electron      35.9999999 magnetization       4.7636838
 augmentation part        0.8423410 magnetization       4.7637711

 Broyden mixing:
  rms(total) = 0.82722E-01    rms(broyden)= 0.82722E-01
  rms(prec ) = 0.82923E-01
  weight for this iteration     100.00

 eigenvalues of (default mixing * dielectric matrix)
  average eigenvalue GAMMA=   1.9015
  6.4981  2.4562  1.9138  1.2719  0.8992  0.8589  0.6909  0.6230

 Free energy of the ion-electron system (eV)
  ---------------------------------------------------
  alpha Z        PSCENC =         0.74428668
  Ewald energy   TEWEN  =      2897.07888037
  -Hartree energ DENC   =     -3805.78987298
  -exchange      EXHF   =         0.00000000
  -V(xc)+E(xc)   XCENC  =       117.36675202
  PAW double counting   =      2877.75047582    -2880.20227871
  entropy T*S    EENTRO =        -0.00000000
  eigenvalues    EBANDS =      -427.40161253
  atomic energy  EATOM  =      1137.27190959
  Solvation  Ediel_sol  =         0.00000000
  ---------------------------------------------------
  free energy    TOTEN  =       -83.18145975 eV

  energy without entropy =      -83.18145975  energy(sigma->0) =      -83.18145975


--------------------------------------------------------------------------------------------------------




--------------------------------------- Iteration      1(  14)  ---------------------------------------


    POTLOK:  cpu time      8.0635: real time      8.0725
    SETDIJ:  cpu time      1.3016: real time      1.3024
     EDDAV:  cpu time      0.7907: real time      0.7918
       DOS:  cpu time      0.0011: real time      0.0012
    CHARGE:  cpu time      0.1632: real time      0.1632
    MIXING:  cpu time      0.0293: real time      0.0293
    --------------------------------------------
      LOOP:  cpu time     10.3494: real time     10.3604

 eigenvalue-minimisations  :   192
 total energy-change (2. order) :-0.8059871E-01  (-0.1504201E-02)
 number of electron      35.9999999 magnetization       3.5387093
 augmentation part        0.8418231 magnetization       3.5388153

 Broyden mixing:
  rms(total) = 0.59170E-01    rms(broyden)= 0.59170E-01
  rms(prec ) = 0.59390E-01
  weight for this iteration     100.00

 eigenvalues of (default mixing * dielectric matrix)
  average eigenvalue GAMMA=   2.1824
  8.9365  3.0037  2.2570  1.4844  1.0218  0.8204  0.8204  0.6745  0.6229

 Free energy of the ion-electron system (eV)
  ---------------------------------------------------
  alpha Z        PSCENC =         0.74428668
  Ewald energy   TEWEN  =      2897.07888037
  -Hartree energ DENC   =     -3807.63557997
  -exchange      EXHF   =         0.00000000
  -V(xc)+E(xc)   XCENC  =       117.30333520
  PAW double counting   =      2871.64577169    -2874.10739670
  entropy T*S    EENTRO =        -0.00000000
  eigenvalues    EBANDS =      -425.56326532
  atomic energy  EATOM  =      1137.27190959
  Solvation  Ediel_sol  =         0.00000000
  ---------------------------------------------------
  free energy    TOTEN  =       -83.26205847 eV

  energy without entropy =      -83.26205847  energy(sigma->0) =      -83.26205847


--------------------------------------------------------------------------------------------------------




--------------------------------------- Iteration      1(  15)  ---------------------------------------


    POTLOK:  cpu time      8.0288: real time      8.0390
    SETDIJ:  cpu time      1.3045: real time      1.3060
     EDDAV:  cpu time      1.1239: real time      1.1251
       DOS:  cpu time      0.0009: real time      0.0009
    CHARGE:  cpu time      0.1614: real time      0.1614
    MIXING:  cpu time      0.0325: real time      0.0325
    --------------------------------------------
      LOOP:  cpu time     10.6521: real time     10.6650

 eigenvalue-minimisations  :   288
 total energy-change (2. order) :-0.3936162E-01  (-0.8517389E-03)
 number of electron      35.9999999 magnetization       2.7011722
 augmentation part        0.8418851 magnetization       2.7011134

 Broyden mixing:
  rms(total) = 0.45626E-01    rms(broyden)= 0.45626E-01
  rms(prec ) = 0.45840E-01
  weight for this iteration     100.00

 eigenvalues of (default mixing * dielectric matrix)
  average eigenvalue GAMMA=   2.2920
 10.5233  3.4147  2.3532  1.6151  1.1980  0.8926  0.8926  0.7388  0.6701  0.6218

 Free energy of the ion-electron system (eV)
  ---------------------------------------------------
  alpha Z        PSCENC =         0.74428668
  Ewald energy   TEWEN  =      2897.07888037
  -Hartree energ DENC   =     -3807.41017505
  -exchange      EXHF   =         0.00000000
  -V(xc)+E(xc)   XCENC  =       117.24342324
  PAW double counting   =      2884.47623350    -2886.93683919
  entropy T*S    EENTRO =        -0.00000000
  eigenvalues    EBANDS =      -425.76913922
  atomic energy  EATOM  =      1137.27190959
  Solvation  Ediel_sol  =         0.00000000
  ---------------------------------------------------
  free energy    TOTEN  =       -83.30142009 eV

  energy without entropy =      -83.30142009  energy(sigma->0) =      -83.30142009


--------------------------------------------------------------------------------------------------------




--------------------------------------- Iteration      1(  16)  ---------------------------------------


    POTLOK:  cpu time      7.9911: real time      7.9997
    SETDIJ:  cpu time      1.3041: real time      1.3049
     EDDAV:  cpu time      0.8661: real time      0.8677
       DOS:  cpu time      0.0008: real time      0.0008
    CHARGE:  cpu time      0.1637: real time      0.1645
    MIXING:  cpu time      0.0320: real time      0.0320
    --------------------------------------------
      LOOP:  cpu time     10.3577: real time     10.3696

 eigenvalue-minimisations  :   216
 total energy-change (2. order) :-0.1554531E-01  (-0.3372065E-03)
 number of electron      35.9999999 magnetization       1.7895087
 augmentation part        0.8420374 magnetization       1.7893140

 Broyden mixing:
  rms(total) = 0.36626E-01    rms(broyden)= 0.36626E-01
  rms(prec ) = 0.36786E-01
  weight for this iteration     100.00

 eigenvalues of (default mixing * dielectric matrix)
  average eigenvalue GAMMA=   2.3951
 11.7874  3.9111  2.4542  2.0012  1.4608  1.0227  0.8608  0.8608  0.7047  0.6217
  0.6603

 Free energy of the ion-electron system (eV)
  ---------------------------------------------------
  alpha Z        PSCENC =         0.74428668
  Ewald energy   TEWEN  =      2897.07888037
  -Hartree energ DENC   =     -3806.52397022
  -exchange      EXHF   =         0.00000000
  -V(xc)+E(xc)   XCENC  =       117.20047380
  PAW double counting   =      2898.20103205    -2900.65708614
  entropy T*S    EENTRO =        -0.00000000
  eigenvalues    EBANDS =      -426.63249153
  atomic energy  EATOM  =      1137.27190959
  Solvation  Ediel_sol  =         0.00000000
  ---------------------------------------------------
  free energy    TOTEN  =       -83.31696540 eV

  energy without entropy =      -83.31696540  energy(sigma->0) =      -83.31696540


--------------------------------------------------------------------------------------------------------




--------------------------------------- Iteration      1(  17)  ---------------------------------------


    POTLOK:  cpu time      8.1410: real time      8.1502
    SETDIJ:  cpu time      1.3061: real time      1.3070
     EDDAV:  cpu time      1.2391: real time      1.2412
       DOS:  cpu time      0.0012: real time      0.0012
    CHARGE:  cpu time      0.1624: real time      0.1624
    MIXING:  cpu time      0.0347: real time      0.0347
    --------------------------------------------
      LOOP:  cpu time     10.8846: real time     10.8967

 eigenvalue-minimisations  :   288
 total energy-change (2. order) :-0.1371234E-01  (-0.2476449E-03)
 number of electron      35.9999999 magnetization       1.0682884
 augmentation part        0.8421111 magnetization       1.0681532

 Broyden mixing:
  rms(total) = 0.26443E-01    rms(broyden)= 0.26443E-01
  rms(prec ) = 0.26558E-01
  weight for this iteration     100.00

 eigenvalues of (default mixing * dielectric matrix)
  average eigenvalue GAMMA=   2.5271
 13.1193  4.8350  2.7756  2.3016  1.5675  1.1460  0.9092  0.9092  0.7943  0.7002
  0.6224  0.6444

 Free energy of the ion-electron system (eV)
  ---------------------------------------------------
  alpha Z        PSCENC =         0.74428668
  Ewald energy   TEWEN  =      2897.07888037
  -Hartree energ DENC   =     -3805.23498403
  -exchange      EXHF   =         0.00000000
  -V(xc)+E(xc)   XCENC  =       117.15406322
  PAW double counting   =      2902.19846470    -2904.65213978
  entropy T*S    EENTRO =        -0.00000000
  eigenvalues    EBANDS =      -427.89115848
  atomic energy  EATOM  =      1137.27190959
  Solvation  Ediel_sol  =         0.00000000
  ---------------------------------------------------
  free energy    TOTEN  =       -83.33067775 eV

  energy without entropy =      -83.33067775  energy(sigma->0) =      -83.33067775


--------------------------------------------------------------------------------------------------------




--------------------------------------- Iteration      1(  18)  ---------------------------------------


    POTLOK:  cpu time      8.3088: real time      8.3207
    SETDIJ:  cpu time      1.3051: real time      1.3060
     EDDAV:  cpu time      0.8650: real time      0.8661
       DOS:  cpu time      0.0010: real time      0.0010
    CHARGE:  cpu time      0.1611: real time      0.1620
    MIXING:  cpu time      0.0362: real time      0.0362
    --------------------------------------------
      LOOP:  cpu time     10.6773: real time     10.6921

 eigenvalue-minimisations  :   216
 total energy-change (2. order) :-0.4468673E-02  (-0.1187510E-03)
 number of electron      35.9999999 magnetization       0.5638413
 augmentation part        0.8421715 magnetization       0.5637723

 Broyden mixing:
  rms(total) = 0.18238E-01    rms(broyden)= 0.18238E-01
  rms(prec ) = 0.18367E-01
  weight for this iteration     100.00

 eigenvalues of (default mixing * dielectric matrix)
  average eigenvalue GAMMA=   2.7388
 15.1142  6.3806  3.1637  2.3530  1.7390  1.3856  1.0185  0.8835  0.8835  0.7402
  0.6886  0.6219  0.6322

 Free energy of the ion-electron system (eV)
  ---------------------------------------------------
  alpha Z        PSCENC =         0.74428668
  Ewald energy   TEWEN  =      2897.07888037
  -Hartree energ DENC   =     -3804.12752075
  -exchange      EXHF   =         0.00000000
  -V(xc)+E(xc)   XCENC  =       117.13165526
  PAW double counting   =      2898.56570894    -2901.01986964
  entropy T*S    EENTRO =        -0.00000000
  eigenvalues    EBANDS =      -428.98019687
  atomic energy  EATOM  =      1137.27190959
  Solvation  Ediel_sol  =         0.00000000
  ---------------------------------------------------
  free energy    TOTEN  =       -83.33514642 eV

  energy without entropy =      -83.33514642  energy(sigma->0) =      -83.33514642


--------------------------------------------------------------------------------------------------------




--------------------------------------- Iteration      1(  19)  ---------------------------------------


    POTLOK:  cpu time      8.0691: real time      8.0778
    SETDIJ:  cpu time      1.3062: real time      1.3070
     EDDAV:  cpu time      0.8668: real time      0.8679
       DOS:  cpu time      0.0010: real time      0.0010
    CHARGE:  cpu time      0.1637: real time      0.1637
    MIXING:  cpu time      0.0370: real time      0.0369
    --------------------------------------------
      LOOP:  cpu time     10.4438: real time     10.4544

 eigenvalue-minimisations  :   216
 total energy-change (2. order) : 0.4564250E-03  (-0.7907114E-04)
 number of electron      35.9999999 magnetization       0.2814319
 augmentation part        0.8422316 magnetization       0.2814445

 Broyden mixing:
  rms(total) = 0.12012E-01    rms(broyden)= 0.12012E-01
  rms(prec ) = 0.12147E-01
  weight for this iteration     100.00

 eigenvalues of (default mixing * dielectric matrix)
  average eigenvalue GAMMA=   2.9171
 17.2929  7.6170  3.4162  2.3083  2.1249  1.5301  1.1959  0.9657  0.8699  0.8699
  0.7239  0.6763  0.6205  0.6282

 Free energy of the ion-electron system (eV)
  ---------------------------------------------------
  alpha Z        PSCENC =         0.74428668
  Ewald energy   TEWEN  =      2897.07888037
  -Hartree energ DENC   =     -3803.45132720
  -exchange      EXHF   =         0.00000000
  -V(xc)+E(xc)   XCENC  =       117.13059509
  PAW double counting   =      2894.86058739    -2897.31636506
  entropy T*S    EENTRO =        -0.00000000
  eigenvalues    EBANDS =      -429.65325685
  atomic energy  EATOM  =      1137.27190959
  Solvation  Ediel_sol  =         0.00000000
  ---------------------------------------------------
  free energy    TOTEN  =       -83.33468999 eV

  energy without entropy =      -83.33468999  energy(sigma->0) =      -83.33468999


--------------------------------------------------------------------------------------------------------




--------------------------------------- Iteration      1(  20)  ---------------------------------------


    POTLOK:  cpu time      7.9611: real time      7.9714
    SETDIJ:  cpu time      1.3062: real time      1.3078
     EDDAV:  cpu time      0.7914: real time      0.7916
       DOS:  cpu time      0.0011: real time      0.0011
    CHARGE:  cpu time      0.1706: real time      0.1718
    MIXING:  cpu time      0.0399: real time      0.0400
    --------------------------------------------
      LOOP:  cpu time     10.2705: real time     10.2837

 eigenvalue-minimisations  :   192
 total energy-change (2. order) :-0.5099887E-03  (-0.4616391E-04)
 number of electron      35.9999999 magnetization       0.1197994
 augmentation part        0.8422281 magnetization       0.1198309

 Broyden mixing:
  rms(total) = 0.80153E-02    rms(broyden)= 0.80150E-02
  rms(prec ) = 0.81350E-02
  weight for this iteration     100.00

 eigenvalues of (default mixing * dielectric matrix)
  average eigenvalue GAMMA=   2.9782
 18.6295  8.2325  3.6594  2.5660  2.2750  1.6190  1.3228  1.0783  0.9167  0.9167
  0.8234  0.7157  0.6704  0.6204  0.6274

 Free energy of the ion-electron system (eV)
  ---------------------------------------------------
  alpha Z        PSCENC =         0.74428668
  Ewald energy   TEWEN  =      2897.07888037
  -Hartree energ DENC   =     -3803.26213659
  -exchange      EXHF   =         0.00000000
  -V(xc)+E(xc)   XCENC  =       117.13481269
  PAW double counting   =      2892.91763529    -2895.37493897
  entropy T*S    EENTRO =        -0.00000000
  eigenvalues    EBANDS =      -429.84564904
  atomic energy  EATOM  =      1137.27190959
  Solvation  Ediel_sol  =         0.00000000
  ---------------------------------------------------
  free energy    TOTEN  =       -83.33519998 eV

  energy without entropy =      -83.33519998  energy(sigma->0) =      -83.33519998


--------------------------------------------------------------------------------------------------------




--------------------------------------- Iteration      1(  21)  ---------------------------------------


    POTLOK:  cpu time      8.1712: real time      8.1805
    SETDIJ:  cpu time      1.3055: real time      1.3062
     EDDAV:  cpu time      1.0318: real time      1.0330
       DOS:  cpu time      0.0011: real time      0.0011
    CHARGE:  cpu time      0.1625: real time      0.1634
    MIXING:  cpu time      0.0408: real time      0.0408
    --------------------------------------------
      LOOP:  cpu time     10.7129: real time     10.7251

 eigenvalue-minimisations  :   264
 total energy-change (2. order) : 0.5251800E-03  (-0.5574746E-04)
 number of electron      35.9999999 magnetization       0.0317430
 augmentation part        0.8422263 magnetization       0.0317840

 Broyden mixing:
  rms(total) = 0.45391E-02    rms(broyden)= 0.45389E-02
  rms(prec ) = 0.45993E-02
  weight for this iteration     100.00

 eigenvalues of (default mixing * dielectric matrix)
  average eigenvalue GAMMA=   3.1097
 20.1414  8.9932  4.4769  3.0744  2.2799  1.9265  1.4986  1.2356  0.9827  0.8780
  0.8780  0.7745  0.7049  0.6635  0.6203  0.6265

 Free energy of the ion-electron system (eV)
  ---------------------------------------------------
  alpha Z        PSCENC =         0.74428668
  Ewald energy   TEWEN  =      2897.07888037
  -Hartree energ DENC   =     -3803.35961544
  -exchange      EXHF   =         0.00000000
  -V(xc)+E(xc)   XCENC  =       117.13685106
  PAW double counting   =      2891.66893071    -2894.12702103
  entropy T*S    EENTRO =        -0.00000000
  eigenvalues    EBANDS =      -429.74889674
  atomic energy  EATOM  =      1137.27190959
  Solvation  Ediel_sol  =         0.00000000
  ---------------------------------------------------
  free energy    TOTEN  =       -83.33467480 eV

  energy without entropy =      -83.33467480  energy(sigma->0) =      -83.33467480


--------------------------------------------------------------------------------------------------------




--------------------------------------- Iteration      1(  22)  ---------------------------------------


    POTLOK:  cpu time      8.1175: real time      8.1268
    SETDIJ:  cpu time      1.3047: real time      1.3066
     EDDAV:  cpu time      0.7929: real time      0.7938
       DOS:  cpu time      0.0011: real time      0.0011
    CHARGE:  cpu time      0.1638: real time      0.1638
    MIXING:  cpu time      0.0441: real time      0.0441
    --------------------------------------------
      LOOP:  cpu time     10.4242: real time     10.4361

 eigenvalue-minimisations  :   192
 total energy-change (2. order) : 0.6703713E-03  (-0.6877017E-04)
 number of electron      35.9999999 magnetization       0.0100782
 augmentation part        0.8422163 magnetization       0.0101026

 Broyden mixing:
  rms(total) = 0.20597E-02    rms(broyden)= 0.20590E-02
  rms(prec ) = 0.21015E-02
  weight for this iteration     100.00

 eigenvalues of (default mixing * dielectric matrix)
  average eigenvalue GAMMA=   3.1322
 21.0266  9.5166  5.1717  3.2250  2.3631  2.0606  1.5011  1.2779  1.0869  0.9407
  0.8972  0.8438  0.7439  0.6854  0.6614  0.6197  0.6263

 Free energy of the ion-electron system (eV)
  ---------------------------------------------------
  alpha Z        PSCENC =         0.74428668
  Ewald energy   TEWEN  =      2897.07888037
  -Hartree energ DENC   =     -3803.48459015
  -exchange      EXHF   =         0.00000000
  -V(xc)+E(xc)   XCENC  =       117.13932129
  PAW double counting   =      2893.24915145    -2895.70676707
  entropy T*S    EENTRO =        -0.00000000
  eigenvalues    EBANDS =      -429.62619659
  atomic energy  EATOM  =      1137.27190959
  Solvation  Ediel_sol  =         0.00000000
  ---------------------------------------------------
  free energy    TOTEN  =       -83.33400443 eV

  energy without entropy =      -83.33400443  energy(sigma->0) =      -83.33400443


--------------------------------------------------------------------------------------------------------




--------------------------------------- Iteration      1(  23)  ---------------------------------------


    POTLOK:  cpu time      8.1963: real time      8.2054
    SETDIJ:  cpu time      1.3076: real time      1.3093
     EDDAV:  cpu time      0.9451: real time      0.9473
       DOS:  cpu time      0.0012: real time      0.0012
    CHARGE:  cpu time      0.1625: real time      0.1625
    MIXING:  cpu time      0.0461: real time      0.0461
    --------------------------------------------
      LOOP:  cpu time     10.6589: real time     10.6718

 eigenvalue-minimisations  :   240
 total energy-change (2. order) :-0.5622385E-03  (-0.1334622E-04)
 number of electron      35.9999999 magnetization       0.0029844
 augmentation part        0.8422007 magnetization       0.0029890

 Broyden mixing:
  rms(total) = 0.10916E-02    rms(broyden)= 0.10912E-02
  rms(prec ) = 0.11321E-02
  weight for this iteration     100.00

 eigenvalues of (default mixing * dielectric matrix)
  average eigenvalue GAMMA=   3.0954
 21.3933  9.7720  5.5015  3.2996  2.4216  2.1636  1.5092  1.5092  1.2628  0.9820
  0.9004  0.9004  0.8065  0.7260  0.6714  0.6525  0.6190  0.6267

 Free energy of the ion-electron system (eV)
  ---------------------------------------------------
  alpha Z        PSCENC =         0.74428668
  Ewald energy   TEWEN  =      2897.07888037
  -Hartree energ DENC   =     -3803.53204619
  -exchange      EXHF   =         0.00000000
  -V(xc)+E(xc)   XCENC  =       117.14043089
  PAW double counting   =      2894.57602932    -2897.03298451
  entropy T*S    EENTRO =        -0.00000000
  eigenvalues    EBANDS =      -429.58107282
  atomic energy  EATOM  =      1137.27190959
  Solvation  Ediel_sol  =         0.00000000
  ---------------------------------------------------
  free energy    TOTEN  =       -83.33456667 eV

  energy without entropy =      -83.33456667  energy(sigma->0) =      -83.33456667


--------------------------------------------------------------------------------------------------------




--------------------------------------- Iteration      1(  24)  ---------------------------------------


    POTLOK:  cpu time      7.8632: real time      7.8739
    SETDIJ:  cpu time      1.3064: real time      1.3071
     EDDAV:  cpu time      0.7903: real time      0.7914
       DOS:  cpu time      0.0011: real time      0.0012
    CHARGE:  cpu time      0.1635: real time      0.1635
    MIXING:  cpu time      0.0485: real time      0.0485
    --------------------------------------------
      LOOP:  cpu time     10.1729: real time     10.1856

 eigenvalue-minimisations  :   192
 total energy-change (2. order) :-0.6023837E-03  (-0.8192925E-05)
 number of electron      35.9999999 magnetization       0.0008045
 augmentation part        0.8421884 magnetization       0.0008063

 Broyden mixing:
  rms(total) = 0.51432E-03    rms(broyden)= 0.51379E-03
  rms(prec ) = 0.55153E-03
  weight for this iteration     100.00

 eigenvalues of (default mixing * dielectric matrix)
  average eigenvalue GAMMA=   3.0504
 21.5700  9.9277  5.7304  3.3926  2.4941  2.4202  1.8594  1.4917  1.2966  1.0439
  0.9208  0.9208  0.8427  0.7789  0.7098  0.6740  0.6184  0.6380  0.6270

 Free energy of the ion-electron system (eV)
  ---------------------------------------------------
  alpha Z        PSCENC =         0.74428668
  Ewald energy   TEWEN  =      2897.07888037
  -Hartree energ DENC   =     -3803.55434597
  -exchange      EXHF   =         0.00000000
  -V(xc)+E(xc)   XCENC  =       117.14073078
  PAW double counting   =      2894.48058488    -2896.93730257
  entropy T*S    EENTRO =        -0.00000000
  eigenvalues    EBANDS =      -429.55991281
  atomic energy  EATOM  =      1137.27190959
  Solvation  Ediel_sol  =         0.00000000
  ---------------------------------------------------
  free energy    TOTEN  =       -83.33516905 eV

  energy without entropy =      -83.33516905  energy(sigma->0) =      -83.33516905


--------------------------------------------------------------------------------------------------------




--------------------------------------- Iteration      1(  25)  ---------------------------------------


    POTLOK:  cpu time      8.0596: real time      8.0696
    SETDIJ:  cpu time      1.3068: real time      1.3085
     EDDAV:  cpu time      0.9689: real time      0.9699
       DOS:  cpu time      0.0011: real time      0.0011
    CHARGE:  cpu time      0.1631: real time      0.1631
    MIXING:  cpu time      0.0513: real time      0.0513
    --------------------------------------------
      LOOP:  cpu time     10.5507: real time     10.5636

 eigenvalue-minimisations  :   240
 total energy-change (2. order) :-0.3807275E-03  (-0.3703267E-05)
 number of electron      35.9999999 magnetization       0.0003919
 augmentation part        0.8421829 magnetization       0.0003927

 Broyden mixing:
  rms(total) = 0.26703E-03    rms(broyden)= 0.26668E-03
  rms(prec ) = 0.30396E-03
  weight for this iteration     100.00

 eigenvalues of (default mixing * dielectric matrix)
  average eigenvalue GAMMA=   2.9659
 21.6009  9.9609  5.7912  3.4264  2.5232  2.5232  1.9377  1.4500  1.2346  1.2346
  0.9561  0.9561  0.8919  0.8338  0.7495  0.7036  0.6652  0.6187  0.6255  0.6339

 Free energy of the ion-electron system (eV)
  ---------------------------------------------------
  alpha Z        PSCENC =         0.74428668
  Ewald energy   TEWEN  =      2897.07888037
  -Hartree energ DENC   =     -3803.56577099
  -exchange      EXHF   =         0.00000000
  -V(xc)+E(xc)   XCENC  =       117.14066363
  PAW double counting   =      2894.11345976    -2896.57018489
  entropy T*S    EENTRO =        -0.00000000
  eigenvalues    EBANDS =      -429.54879392
  atomic energy  EATOM  =      1137.27190959
  Solvation  Ediel_sol  =         0.00000000
  ---------------------------------------------------
  free energy    TOTEN  =       -83.33554978 eV

  energy without entropy =      -83.33554978  energy(sigma->0) =      -83.33554978


[...]
  248        set_dd_paw                            1.300090                            1   3
  249          set_rsgf_all                          0.000002                          1   4
  250          m_sumb_d                              1.299942                          7   4
  251        strkin                                0.001512                            1   3
  252          m_sumb_d                              0.000411                          1   4
  253        strelo                                0.011565                            1   3
  254          m_sumb_d                              0.000281                          2   4
  255        strnlr                                0.673263                            1   3
  256          rspher_all                            0.026609                          9   4
  257          phaser                                0.000005                          9   4
  258          rpro_isp                              0.630200                          9   4
  259            fftwav_mpi                            0.620562                       36   5
  260              fft3d_mpi                             0.540390                     36   6
  261                fftbrc_mpi                            0.447388                   36   7
  262                  fftbas_plan_mpi                       0.447290                 36   8
  263                    dfftw_execute                         0.227643              108   9
  264                    map_forward                           0.196555               72   9
  265                      map_gather                            0.045330             36  10
  266                      m_alltoallv_z                         0.032238             36  10
  267                      map_scatter                           0.053755             36  10
  268            rpromu                                0.009140                       18   5
  269              rpromu_gemm                           0.002209                    270   6
  270              m_sumb_d                              0.001808                     36   6
  271          m_sumb_d                              0.015952                          1   4
  272        m_sumb_d                              0.418922                            7   3
  273        fft3d_mpi                             1.202044                           82   3
  274          fftbrc_mpi                            1.158190                         82   4
  275            fftbas_plan_mpi                       1.157969                       82   5
  276              dfftw_execute                         0.216690                    246   6
  277              map_forward                           0.594964                     80   6
  278                map_gather                            0.040023                   40   7
  279                m_alltoallv_z                         0.526551                   40   7
  280                map_scatter                           0.027682                   40   7
  281              map_backward                          0.291936                     84   6
  282                map_gather                            0.022202                   42   7
  283                m_alltoallv_z                         0.201566                   42   7
  284                map_scatter                           0.067420                   42   7
  285        forhar                                0.088424                            2   3
  286          m_sumb_d                              0.001118                          2   4
  287        strehar                               0.008008                            1   3
  288          m_sumb_d                              0.000496                          1   4
  289        chggra                                0.042447                            1   3
  290          fft3d_mpi                             0.029914                          3   4
  291            fftbrc_mpi                            0.028470                        3   5
  292              fftbas_plan_mpi                       0.028461                      3   6
  293                dfftw_execute                         0.007956                    9   7
  294                map_backward                          0.006353                    2   7
  295                  map_gather                            0.000459                  1   8
  296                  m_alltoallv_z                         0.004640                  1   8
  297                  map_scatter                           0.001229                  1   8
  298                map_forward                           0.011932                    4   7
  299                  map_gather                            0.002062                  2   8
  300                  m_alltoallv_z                         0.008403                  2   8
  301                  map_scatter                           0.001431                  2   8
  302          m_sumb_d                              0.000118                          2   4
  303          pothar                                0.003100                          1   4
  304            m_sumb_d                              0.000994                        1   5
  305        brmix                                 0.071632                            1   3
  306          m_sumb_d                              0.000563                          6   4
  307          brpre                                 0.000331                          2   4
  308          setg0                                 0.006454                          1   4
  309          broyd                                 0.054826                          1   4
  310            m_sumb_d                              0.003711                       35   5
  311            brget                                 0.010561                      177   5
  312            brsav                                 0.002410                       33   5
  313        m_bcast_d                             0.001110                            2   3
  314      potlok                                7.886899                              1   2
  315        fft3d_mpi                             0.997647                           86   3
  316          fftbrc_mpi                            0.949451                         86   4
  317            fftbas_plan_mpi                       0.949209                       86   5
  318              dfftw_execute                         0.228583                    258   6
  319              map_forward                           0.376500                     88   6
  320                map_gather                            0.042636                   46   7
  321                m_alltoallv_z                         0.300078                   46   7
  322                map_scatter                           0.032861                   46   7
  323              map_backward                          0.287662                     84   6
  324                map_gather                            0.022576                   42   7
  325                m_alltoallv_z                         0.198275                   42   7
  326                map_scatter                           0.066077                   42   7
  327        m_sumb_d                              0.073463                            6   3
  328        pothar                                0.003349                            1   3
  329          m_sumb_d                              0.001273                          1   4
  330        m_bcast_d                             0.009498                            2   3
  331      potlok_metagga                        0.000002                              1   2
  332      set_dd_magatom                        0.000001                              1   2
  333      set_dd_paw                            1.297103                              1   2
  334        set_rsgf_all                          0.000002                            1   3
  335        m_sumb_d                              1.296968                            7   3
  336      m_bcast_d                             0.000137                              2   2
  337      densta                                0.000663                              1   2
  338        m_sumb_d                              0.000532                            8   3
 
 Flat profile
 ============
 
             routine name                   CPU           calls
 ---------------------------------------------------------------
 potlok                                200.500767          30
 m_sumb_d                               56.681633        5439
 total_time                             19.139915           1
 m_alltoallv_z                          16.277931        4327
 dfftw_execute                          15.853194       12627
 force_and_stress                        6.565652           1
 fft3d_mpi                               5.376631        4209
 map_scatter                             5.210847        4327
 m_alltoall_d                            4.287647        3533
 map_gather                              4.060160        4327
 fftbas_plan_mpi                         2.659221        4209
 fftwav_mpi                              2.539991         944
 map_forward                             1.829416        4614
 vhamil                                  1.748461         483
 lapack                                  1.471961         483
 orth1                                   1.172264        1453
 eddav                                   0.760717          33
 soft_charge                             0.679476          29
 broyd                                   0.435035          29
 ggemm                                   0.428711         615
 m_bcast_d                               0.381473        1513
 m_bcast_z                               0.346250         100
 redis_pw                                0.322848        1453
 brmix                                   0.303577          29
 eccp                                    0.290308         132
 elmin                                   0.272167           1
 w1_copy                                 0.259429        1449
 fftext_mpi                              0.216422         483
 setg0                                   0.192573          31
 setdij_                                 0.166227          57
 brget                                   0.141809        2520
 augmentation_charge                     0.138556          29
 pw_charge                               0.138453          58
 kinhamil                                0.115087         483
 racc0                                   0.102868         483
 lincom                                  0.099469          68
 forhar                                  0.087306           2
 rpro1                                   0.075033         351
 pothar                                  0.064938          31
 apply_precond                           0.064856         351
 brsav                                   0.057802         556
 forloc                                  0.057224           1
 setup_precond                           0.050353         132
 fft_gq                                  0.049039          29
 inisym                                  0.047305           1
 stufak                                  0.039978           1
 rspher_all                              0.039120          14
 map_backward                            0.037807        3804
 set_charge                              0.033586          29
 redis_proj                              0.029404        1806
 choleski                                0.018696           2
 overl                                   0.016595         836
 rpromu_gemm                             0.015213         390
 fftbrc_mpi                              0.014087        4209
 brpre                                   0.012293          58
 strelo                                  0.011284           1
 rpro_isp                                0.010417          13
 chggra                                  0.009315           1
 newband                                 0.008722         549
 hamiltmu                                0.008006         483
 overl1                                  0.007899         483
 strehar                                 0.007512           1
 rpromu                                  0.007446          26
 set_dd_paw                              0.005446          31
 fewald                                  0.005425           1
 raccmu_                                 0.004833         483
 densta                                  0.003456          34
 w1_projall                              0.001719         351
 brgrid                                  0.001497           1
 depsum                                  0.001242          29
 rsp                                     0.001148           1
 strkin                                  0.001101           1
 orthch                                  0.000856           1
 truncate_high_frequency_w1              0.000589         615
 strnlr                                  0.000497           1
 fordep                                  0.000243           1
 crpa_reader                             0.000236           1
 fornlr                                  0.000158           1
 potlok_metagga                          0.000154          30
 set_dd_magatom                          0.000153          31
 rcp                                     0.000107           1
 set_rsgf_all                            0.000078          31
 phaser                                  0.000061          79
 vectorpot                               0.000043          30
 posmap                                  0.000026           2
 rotate_active_occupied_orbital          0.000026           1
 proall                                  0.000024           1
 redis_pw_over_bands                     0.000001           1
 ---------------------------------------------------------------
  summed up times    352.077502012253     
 
 Accumulative profile
 ====================
 
             routine name                   CPU           calls
 ---------------------------------------------------------------
 total_time                            352.077502           1
 elmin                                 312.114603           1
 potlok                                242.829060          30
 m_sumb_d                               56.681633        5439
 fft3d_mpi                              51.319294        4209
 fftbrc_mpi                             45.942662        4209
 fftbas_plan_mpi                        45.928575        4209
 set_dd_paw                             40.320862          31
 eddav                                  33.281893          33
 fftwav_mpi                             16.858091         944
 m_alltoallv_z                          16.277931        4327
 dfftw_execute                          15.853194       12627
 map_forward                            15.704200        4614
 map_backward                           11.711961        3804
 force_and_stress                       10.937327           1
 hamiltmu                                8.148667         483
 kinhamil                                6.201157         483
 fftext_mpi                              6.086070         483
 map_scatter                             5.210847        4327
 set_charge                              4.763168          29
 m_alltoall_d                            4.287647        3533
 map_gather                              4.060160        4327
 soft_charge                             3.972039          29
 redis_pw                                3.333842        1453
 newband                                 3.142689         549
 vhamil                                  1.748461         483
 lapack                                  1.471961         483
 redis_proj                              1.306057        1806
 brmix                                   1.225791          29
 orth1                                   1.172264        1453
 rpro_isp                                0.979595          13
 augmentation_charge                     0.744894          29
 broyd                                   0.701123          29
 strnlr                                  0.673263           1
 fft_gq                                  0.639892          29
 ggemm                                   0.428711         615
 m_bcast_d                               0.381473        1513
 m_bcast_z                               0.346250         100
 eccp                                    0.308396         132
 w1_copy                                 0.259429        1449
 fornlr                                  0.250185           1
 setg0                                   0.192573          31
 raccmu_                                 0.191043         483
 setdij_                                 0.188046          57
 racc0                                   0.178312         483
 brget                                   0.141809        2520
 pw_charge                               0.138453          58
 w1_projall                              0.129695         351
 rpro1                                   0.127977         351
 proall                                  0.120552           1
 lincom                                  0.099469          68
 pothar                                  0.091150          31
 forhar                                  0.088424           2
 orthch                                  0.082678           1
 apply_precond                           0.064856         351
 forloc                                  0.058775           1
 brsav                                   0.057802         556
 setup_precond                           0.056659         132
 inisym                                  0.047331           1
 chggra                                  0.042447           1
 stufak                                  0.039978           1
 rspher_all                              0.039120          14
 rpromu                                  0.027570          26
 densta                                  0.021480          34
 fordep                                  0.019502           1
 choleski                                0.018696           2
 overl                                   0.016595         836
 rpromu_gemm                             0.015213         390
 depsum                                  0.012649          29
 brpre                                   0.012293          58
 strelo                                  0.011565           1
 fewald                                  0.008282           1
 strehar                                 0.008008           1
 overl1                                  0.007899         483
 strkin                                  0.001512           1
 brgrid                                  0.001497           1
 rsp                                     0.001148           1
 truncate_high_frequency_w1              0.000589         615
 crpa_reader                             0.000236           1
 potlok_metagga                          0.000154          30
 set_dd_magatom                          0.000153          31
 rcp                                     0.000107           1
 set_rsgf_all                            0.000078          31
 phaser                                  0.000061          79
 vectorpot                               0.000043          30
 posmap                                  0.000026           2
 rotate_active_occupied_orbital          0.000026           1
 redis_pw_over_bands                     0.000001           1
 ---------------------------------------------------------------
 
Profiling took   0.115391  0.040219  0.007358  0.006554 seconds
Profiling took   0.142260 seconds
