 vasp.6.3.2 27Jun22 (build Jul 18 2024 17:50:03) complex                         
 executed on              LinuxNV date 2024.08.13  05:29:57
 running on  144 total cores
 distrk:  each k-point on   36 cores,    4 groups
 distr:  one band on NCORE=   1 cores,   36 groups


--------------------------------------------------------------------------------------------------------


 INCAR:
   ENCUT = 600.00
   EDIFF = 1.00e-06
   EDIFFG = -0.03
   IBRION = 2
   ALGO = Normal
   ISMEAR = 0
   SIGMA = 0.05
   LCHARG = .FALSE.
   LWAVE = .FALSE.
   LREAL = Auto
   NELM = 2000
   NSW = 5000
   NCORE = 16
   KPAR = 4
   ISPIN = 2
   GGA = MK
   PARAM1 = 0.1234
   PARAM2 = 1.0
   AGGAC = 0.0
   LUSE_VDW = .TRUE.
   LASPH = .TRUE.
   LDIPOL = .TRUE.
   DIPOL = 0.5 0.5 0.5
   IDIPOL = 3

 POTCAR:    PAW_PBE Mo_sv 02Feb2006               
 POTCAR:    PAW_PBE S 06Sep2000                   
 POTCAR:    PAW_PBE C 08Apr2002                   
 POTCAR:    PAW_PBE H 15Jun2001                   
 -----------------------------------------------------------------------------
|                                                                             |
|           W    W    AA    RRRRR   N    N  II  N    N   GGGG   !!!           |
|           W    W   A  A   R    R  NN   N  II  NN   N  G    G  !!!           |
|           W    W  A    A  R    R  N N  N  II  N N  N  G       !!!           |
|           W WW W  AAAAAA  RRRRR   N  N N  II  N  N N  G  GGG   !            |
|           WW  WW  A    A  R   R   N   NN  II  N   NN  G    G                |
|           W    W  A    A  R    R  N    N  II  N    N   GGGG   !!!           |
|                                                                             |
|     You use a magnetic or noncollinear calculation, but did not specify     |
|     the initial magnetic moment with the MAGMOM tag. Note that a            |
|     default of 1 will be used for all atoms. This ferromagnetic setup       |
|     may break the symmetry of the crystal, in particular it may rule        |
|     out finding an antiferromagnetic solution. Thence, we recommend         |
|     setting the initial magnetic moment manually or verifying carefully     |
|     that this magnetic setup is desired.                                    |
|                                                                             |
 -----------------------------------------------------------------------------

 -----------------------------------------------------------------------------
|                                                                             |
|           W    W    AA    RRRRR   N    N  II  N    N   GGGG   !!!           |
|           W    W   A  A   R    R  NN   N  II  NN   N  G    G  !!!           |
|           W    W  A    A  R    R  N N  N  II  N N  N  G       !!!           |
|           W WW W  AAAAAA  RRRRR   N  N N  II  N  N N  G  GGG   !            |
|           WW  WW  A    A  R   R   N   NN  II  N   NN  G    G                |
|           W    W  A    A  R    R  N    N  II  N    N   GGGG   !!!           |
|                                                                             |
|     For optimal performance we recommend to set                             |
|       NCORE = 2 up to number-of-cores-per-socket                            |
|     NCORE specifies how many cores store one orbital (NPAR=cpu/NCORE).      |
|     This setting can greatly improve the performance of VASP for DFT.       |
|     The default, NCORE=1 might be grossly inefficient on modern             |
|     multi-core architectures or massively parallel machines. Do your        |
|     own testing! More info at https://www.vasp.at/wiki/index.php/NCORE      |
|     Unfortunately you need to use the default for GW and RPA                |
|     calculations (for HF NCORE is supported but not extensively tested      |
|     yet).                                                                   |
|                                                                             |
 -----------------------------------------------------------------------------

 -----------------------------------------------------------------------------
|                                                                             |
|               ----> ADVICE to this user running VASP <----                  |
|                                                                             |
|     You have switched on vdW-DFT.                                           |
|     This routine was written and supplied by Jiri Klimes. We recommend      |
|     that you carefully read and cite the following publications:            |
|       J. Klimes, D.R. Bowler, A. Michelides                                 |
|          J. Phys.: Cond Matt. 22 022201 (2010)                              |
|       J. Klimes, D.R. Bowler, A. Michelides                                 |
|          Phys. Rev. B. 83, 195131 (2011)                                    |
|     and references therein.                                                 |
|                                                                             |
 -----------------------------------------------------------------------------

 POTCAR:    PAW_PBE Mo_sv 02Feb2006               
   SHA256 =  2731df97e41766cc617548c5a8267718fdef1f509ac6bafa01e745abea2bdfaa Mo_sv/POTCAR          
   COPYR  = (c) Copyright 02Feb2006 Georg Kresse                                                    
   COPYR  = This file is part of the software VASP. Any use, copying, and all other rights are regul
   COPYR  = If you do not have a valid VASP license, you may not use, copy or distribute this file. 
   VRHFIN =Mo: 4p5s4d                                                                               
   LEXCH  = PE                                                                                      
   EATOM  =  1862.2866 eV,  136.8742 Ry                                                             
                                                                                                    
   TITEL  = PAW_PBE Mo_sv 02Feb2006                                                                 
   LULTRA =        F    use ultrasoft PP ?                                                          
   IUNSCR =        1    unscreen: 0-lin 1-nonlin 2-no                                               
   RPACOR =    2.200    partial core radius                                                         
   POMASS =   95.940; ZVAL   =   14.000    mass and valenz                                          
   RCORE  =    2.500    outmost cutoff radius                                                       
   RWIGS  =    2.750; RWIGS  =    1.455    wigner-seitz radius (au A)                               
   ENMAX  =  242.676; ENMIN  =  182.007 eV                                                          
   ICORE  =        3    local potential                                                             
   LCOR   =        T    correct aug charges                                                         
   LPAW   =        T    paw PP                                                                      
   EAUG   =  446.014                                                                                
   DEXC   =    0.000                                                                                
   RMAX   =    2.563    core radius for proj-oper                                                   
   RAUG   =    1.300    factor for augmentation sphere                                              
   RDEP   =    2.641    radius for radial grids                                                     
   RDEPT  =    2.031    core radius for aug-charge                                                  
                                                                                                    
   Atomic configuration                                                                             
   11 entries                                                                                       
     n  l   j            E        occ.                                                              
     1  0  0.50    -19819.0341   2.0000                                                             
     2  0  0.50     -2799.0127   2.0000                                                             
     2  1  1.50     -2502.0276   6.0000                                                             
     3  0  0.50      -476.4449   2.0000                                                             
     3  1  1.50      -379.1496   6.0000                                                             
     3  2  2.50      -220.9367  10.0000                                                             
     4  0  0.50       -64.3378   2.0000                                                             
     5  0  0.50        -4.0862   1.0000                                                             
     4  1  1.50       -38.4773   6.0000                                                             
     4  2  2.50        -3.7535   5.0000                                                             
     4  3  2.50        -1.3606   0.0000                                                             
   Description                                                                                      
     l       E           TYP  RCUT    TYP  RCUT                                                     
     0    -64.3377829     23  2.100                                                                 
     0     -4.0861640     23  2.400                                                                 
     1    -38.4772993     23  2.100                                                                 
     1     13.6058260     23  2.100                                                                 
     2     -3.7534941     23  2.400                                                                 
     2     -5.1140767     23  2.400                                                                 
     3     -4.0817478     23  2.500                                                                 
  local pseudopotential read in
  partial core-charges read in
  partial kinetic energy density read in
  atomic valenz-charges read in
  non local Contribution for L=            0  read in
    real space projection operators read in
  non local Contribution for L=            0  read in
    real space projection operators read in
  non local Contribution for L=            1  read in
    real space projection operators read in
  non local Contribution for L=            1  read in
    real space projection operators read in
  non local Contribution for L=            2  read in
    real space projection operators read in
  non local Contribution for L=            2  read in
    real space projection operators read in
    PAW grid and wavefunctions read in
 
   number of l-projection  operators is LMAX  =            6
   number of lm-projection operators is LMMAX =           18
 
 POTCAR:    PAW_PBE S 06Sep2000                   
   SHA256 =  0fc7481fb0695f01bdc6462160264c5c84044ae9ec85a907d398b887a2bc3132 S/POTCAR              
   COPYR  = (c) Copyright 06Sep2000 Georg Kresse                                                    
   COPYR  = This file is part of the software VASP. Any use, copying, and all other rights are regul
   COPYR  = If you do not have a valid VASP license, you may not use, copy or distribute this file. 
   VRHFIN =S : s2p4                                                                                 
   LEXCH  = PE                                                                                      
   EATOM  =   276.8230 eV,   20.3459 Ry                                                             
                                                                                                    
   TITEL  = PAW_PBE S 06Sep2000                                                                     
   LULTRA =        F    use ultrasoft PP ?                                                          
   IUNSCR =        1    unscreen: 0-lin 1-nonlin 2-no                                               
   RPACOR =    1.500    partial core radius                                                         
   POMASS =   32.066; ZVAL   =    6.000    mass and valenz                                          
   RCORE  =    1.900    outmost cutoff radius                                                       
   RWIGS  =    2.200; RWIGS  =    1.164    wigner-seitz radius (au A)                               
   ENMAX  =  258.689; ENMIN  =  194.016 eV                                                          
   ICORE  =        2    local potential                                                             
   LCOR   =        T    correct aug charges                                                         
   LPAW   =        T    paw PP                                                                      
   EAUG   =  335.092                                                                                
   DEXC   =    0.000                                                                                
   RMAX   =    1.942    core radius for proj-oper                                                   
   RAUG   =    1.300    factor for augmentation sphere                                              
   RDEP   =    1.954    radius for radial grids                                                     
   RDEPT  =    1.744    core radius for aug-charge                                                  
                                                                                                    
   Atomic configuration                                                                             
    6 entries                                                                                       
     n  l   j            E        occ.                                                              
     1  0  0.50     -2405.8406   2.0000                                                             
     2  0  0.50      -211.7007   2.0000                                                             
     2  1  1.50      -156.4958   6.0000                                                             
     3  0  0.50       -17.2562   2.0000                                                             
     3  1  0.50        -7.0085   4.0000                                                             
     3  2  1.50        -6.8029   0.0000                                                             
   Description                                                                                      
     l       E           TYP  RCUT    TYP  RCUT                                                     
     0    -17.2561641     23  1.900                                                                 
     0    -15.8743224     23  1.900                                                                 
     1     -7.0085400     23  1.900                                                                 
     1     -2.7779785     23  1.900                                                                 
     2     -6.8029130     23  1.900                                                                 
  local pseudopotential read in
  partial core-charges read in
  partial kinetic energy density read in
  atomic valenz-charges read in
  non local Contribution for L=            0  read in
    real space projection operators read in
  non local Contribution for L=            0  read in
    real space projection operators read in
  non local Contribution for L=            1  read in
    real space projection operators read in
  non local Contribution for L=            1  read in
    real space projection operators read in
    PAW grid and wavefunctions read in
 
   number of l-projection  operators is LMAX  =            4
   number of lm-projection operators is LMMAX =            8
 
 POTCAR:    PAW_PBE C 08Apr2002                   
   SHA256 =  253f7b50bb8d59471dbedb8285d89021f4a42ed1a2c5d38a03a736e69125dd95 C/POTCAR              
   COPYR  = (c) Copyright 08Apr2002 Georg Kresse                                                    
   COPYR  = This file is part of the software VASP. Any use, copying, and all other rights are regul
   COPYR  = If you do not have a valid VASP license, you may not use, copy or distribute this file. 
   VRHFIN =C: s2p2                                                                                  
   LEXCH  = PE                                                                                      
   EATOM  =   147.1560 eV,   10.8157 Ry                                                             
                                                                                                    
   TITEL  = PAW_PBE C 08Apr2002                                                                     
   LULTRA =        F    use ultrasoft PP ?                                                          
   IUNSCR =        1    unscreen: 0-lin 1-nonlin 2-no                                               
   RPACOR =    1.200    partial core radius                                                         
   POMASS =   12.011; ZVAL   =    4.000    mass and valenz                                          
   RCORE  =    1.500    outmost cutoff radius                                                       
   RWIGS  =    1.630; RWIGS  =    0.863    wigner-seitz radius (au A)                               
   ENMAX  =  400.000; ENMIN  =  300.000 eV                                                          
   ICORE  =        2    local potential                                                             
   LCOR   =        T    correct aug charges                                                         
   LPAW   =        T    paw PP                                                                      
   EAUG   =  644.873                                                                                
   DEXC   =    0.000                                                                                
   RMAX   =    1.529    core radius for proj-oper                                                   
   RAUG   =    1.300    factor for augmentation sphere                                              
   RDEP   =    1.501    radius for radial grids                                                     
   RDEPT  =    1.300    core radius for aug-charge                                                  
                                                                                                    
   Atomic configuration                                                                             
    4 entries                                                                                       
     n  l   j            E        occ.                                                              
     1  0  0.50      -273.3789   2.0000                                                             
     2  0  0.50       -13.7508   2.0000                                                             
     2  1  0.50        -5.2854   2.0000                                                             
     3  2  1.50        -5.4423   0.0000                                                             
   Description                                                                                      
     l       E           TYP  RCUT    TYP  RCUT                                                     
     0    -13.7508458     23  1.200                                                                 
     0     -8.2022199     23  1.200                                                                 
     1     -5.2854383     23  1.500                                                                 
     1     34.0145650     23  1.500                                                                 
     2     -5.4423304      7  1.500                                                                 
  local pseudopotential read in
  partial core-charges read in
  partial kinetic energy density read in
  atomic valenz-charges read in
  non local Contribution for L=            0  read in
    real space projection operators read in
  non local Contribution for L=            0  read in
    real space projection operators read in
  non local Contribution for L=            1  read in
    real space projection operators read in
  non local Contribution for L=            1  read in
    real space projection operators read in
    PAW grid and wavefunctions read in
 
   number of l-projection  operators is LMAX  =            4
   number of lm-projection operators is LMMAX =            8
 
 POTCAR:    PAW_PBE H 15Jun2001                   
   SHA256 =  030f79b5d3ab3cf0e668861823c8fb652ff669f3e15e46930bd03bfd63a607b6 H/POTCAR              
   COPYR  = (c) Copyright 15Jun2001 Georg Kresse                                                    
   COPYR  = This file is part of the software VASP. Any use, copying, and all other rights are regul
   COPYR  = If you do not have a valid VASP license, you may not use, copy or distribute this file. 
   VRHFIN =H: ultrasoft test                                                                        
   LEXCH  = PE                                                                                      
   EATOM  =    12.4884 eV,    0.9179 Ry                                                             
                                                                                                    
   TITEL  = PAW_PBE H 15Jun2001                                                                     
   LULTRA =        F    use ultrasoft PP ?                                                          
   IUNSCR =        0    unscreen: 0-lin 1-nonlin 2-no                                               
   RPACOR =    0.000    partial core radius                                                         
   POMASS =    1.000; ZVAL   =    1.000    mass and valenz                                          
   RCORE  =    1.100    outmost cutoff radius                                                       
   RWIGS  =    0.700; RWIGS  =    0.370    wigner-seitz radius (au A)                               
   ENMAX  =  250.000; ENMIN  =  200.000 eV                                                          
   RCLOC  =    0.701    cutoff for local pot                                                        
   LCOR   =        T    correct aug charges                                                         
   LPAW   =        T    paw PP                                                                      
   EAUG   =  400.000                                                                                
   RMAX   =    1.123    core radius for proj-oper                                                   
   RAUG   =    1.200    factor for augmentation sphere                                              
   RDEP   =    1.112    radius for radial grids                                                     
   RDEPT  =    0.926    core radius for aug-charge                                                  
                                                                                                    
   Atomic configuration                                                                             
    2 entries                                                                                       
     n  l   j            E        occ.                                                              
     1  0  0.50        -6.4927   1.0000                                                             
     2  1  0.50        -3.4015   0.0000                                                             
   Description                                                                                      
     l       E           TYP  RCUT    TYP  RCUT                                                     
     0     -6.4927494     23  1.100                                                                 
     0      6.8029130     23  1.100                                                                 
     1     -4.0817478     23  1.100                                                                 
  local pseudopotential read in
  atomic valenz-charges read in
  non local Contribution for L=            0  read in
    real space projection operators read in
  non local Contribution for L=            0  read in
    real space projection operators read in
  non local Contribution for L=            1  read in
    real space projection operators read in
    PAW grid and wavefunctions read in
 
   number of l-projection  operators is LMAX  =            3
   number of lm-projection operators is LMMAX =            5
 
 Optimization of the real space projectors (new method)

 maximal supplied QI-value         = 15.12
 optimisation between [QCUT,QGAM] = [ 12.55, 25.10] = [ 44.09,176.36] Ry 
 Optimized for a Real-space Cutoff    1.47 Angstroem

   l    n(q)    QCUT    max X(q) W(low)/X(q) W(high)/X(q)  e(spline) 
   0     11    12.548     3.559    0.18E-04    0.60E-05    0.19E-06
   0     11    12.548    20.730    0.37E-04    0.13E-04    0.98E-07
   1     11    12.548     3.279    0.80E-06    0.70E-06    0.27E-07
   1     11    12.548     4.693    0.72E-04    0.11E-03    0.38E-06
   2     10    12.548    67.616    0.34E-03    0.45E-03    0.54E-06
   2     10    12.548    62.420    0.34E-03    0.45E-03    0.54E-06
 Optimization of the real space projectors (new method)

 maximal supplied QI-value         = 19.84
 optimisation between [QCUT,QGAM] = [ 12.50, 25.00] = [ 43.76,175.03] Ry 
 Optimized for a Real-space Cutoff    1.06 Angstroem

   l    n(q)    QCUT    max X(q) W(low)/X(q) W(high)/X(q)  e(spline) 
   0      8    12.501   187.594    0.26E-03    0.17E-03    0.97E-07
   0      8    12.501   164.243    0.26E-03    0.17E-03    0.96E-07
   1      7    12.501    67.533    0.50E-03    0.61E-03    0.91E-07
   1      7    12.501    50.729    0.48E-03    0.60E-03    0.90E-07
 Optimization of the real space projectors (new method)

 maximal supplied QI-value         = 25.13
 optimisation between [QCUT,QGAM] = [ 12.32, 24.88] = [ 42.47,173.37] Ry 
 Optimized for a Real-space Cutoff    1.06 Angstroem

   l    n(q)    QCUT    max X(q) W(low)/X(q) W(high)/X(q)  e(spline) 
   0      8    12.315   115.676    0.34E-03    0.18E-03    0.23E-06
   0      8    12.315    87.132    0.34E-03    0.18E-03    0.22E-06
   1      7    12.315     4.429    0.45E-03    0.12E-03    0.18E-06
   1      7    12.315     2.733    0.35E-03    0.97E-04    0.15E-06
 Optimization of the real space projectors (new method)

 maximal supplied QI-value         = 34.20
 optimisation between [QCUT,QGAM] = [ 12.31, 24.97] = [ 42.46,174.58] Ry 
 Optimized for a Real-space Cutoff    1.00 Angstroem

   l    n(q)    QCUT    max X(q) W(low)/X(q) W(high)/X(q)  e(spline) 
   0      7    12.313    19.460    0.14E-03    0.42E-03    0.16E-06
   0      7    12.313    12.209    0.12E-03    0.40E-03    0.16E-06
   1      7    12.313     4.655    0.33E-03    0.59E-03    0.89E-07
 -----------------------------------------------------------------------------
|                                                                             |
|               ----> ADVICE to this user running VASP <----                  |
|                                                                             |
|     You enforced a specific xc type in the INCAR file but a different       |
|     type was found in the POTCAR file.                                      |
|     I HOPE YOU KNOW WHAT YOU ARE DOING!                                     |
|                                                                             |
 -----------------------------------------------------------------------------

  PAW_PBE Mo_sv 02Feb2006               :
 energy of atom  1       EATOM=-1862.2866
 kinetic energy error for atom=    0.0041 (will be added to EATOM!!)
  PAW_PBE S 06Sep2000                   :
 energy of atom  2       EATOM= -276.8230
 kinetic energy error for atom=    0.0009 (will be added to EATOM!!)
  PAW_PBE C 08Apr2002                   :
 energy of atom  3       EATOM= -147.1560
 kinetic energy error for atom=    0.0057 (will be added to EATOM!!)
  PAW_PBE H 15Jun2001                   :
 energy of atom  4       EATOM=  -12.4884
 kinetic energy error for atom=    0.0004 (will be added to EATOM!!)
 
 
 POSCAR: Mo S  C  H
  positions in direct lattice
  velocities in cartesian coordinates
 exchange correlation table for  LEXCH =       43
   RHO(1)=    0.500       N(1)  =     2000
   RHO(2)=  100.500       N(2)  =     4000

 VTST: version 4.1, (05/19/21)

 CHAIN: initializing optimizer
 
 OPT: Using VASP Conjugate-Gradient optimizer
 CHAIN: Read ICHAIN             0
 
 POSCAR: Mo S  C  H
  positions in direct lattice
  velocities in cartesian coordinates
 


--------------------------------------------------------------------------------------------------------


 ion  position               nearest neighbor table
   1  0.132  0.064  0.500- 138 2.41 144 2.41 162 2.41 159 2.41 141 2.41 147 2.41  71 3.16  20 3.16
                            67 3.16  72 3.16  62 3.17  49 3.17
   2  0.666  0.731  0.671- 106 2.40 114 2.41 196 2.41 108 2.41 193 2.41 117 2.41   8 3.15  64 3.16
                            37 3.16  55 3.17  42 3.17  32 3.18
   3  0.265  0.929  0.670- 155 2.40 143 2.41 215 2.41 218 2.41 140 2.41 149 2.41  25 3.16   9 3.16
                            74 3.16  51 3.16  50 3.17  28 3.17
   4  0.266  0.932  0.330- 217 2.41 148 2.41 142 2.41 146 2.41 214 2.41 139 2.41  75 3.16  24 3.16
                            52 3.16  70 3.16  10 3.16  29 3.17
   5  0.332  0.864  0.500- 136 2.41 210 2.41 197 2.41 213 2.41 207 2.41 216 2.41  53 3.16  72 3.16
                            12 3.16  71 3.16  23 3.17  30 3.17
   6  0.732  0.864  0.500- 116 2.41 110 2.41  76 2.41  89 2.41 100 2.41 119 2.41  46 3.16  30 3.16
                            49 3.16  34 3.16  22 3.16  67 3.16
   7  0.666  0.931  0.330- 201 2.41  97 2.41  94 2.41 105 2.41 198 2.41 107 2.41  11 3.16  63 3.16
                            16 3.16  33 3.16  26 3.16  29 3.17
   8  0.666  0.930  0.670-  96 2.41 108 2.41 199 2.41  93 2.41 106 2.41 134 2.41   2 3.15  27 3.15
                            17 3.16  28 3.16  64 3.17  32 3.17
   9  0.265  0.729  0.670- 209 2.40 215 2.41 137 2.41 157 2.41 218 2.41 212 2.41  32 3.15   3 3.16
                            13 3.16  56 3.16  51 3.17  28 3.17
  10  0.266  0.732  0.330- 211 2.41 217 2.41 145 2.41 158 2.41 208 2.41 214 2.41  57 3.16  52 3.16
                            14 3.16   4 3.16  29 3.16  33 3.17
  11  0.666  0.732  0.330- 195 2.41 118 2.41 115 2.41 105 2.41 192 2.41 107 2.41   7 3.16  38 3.16
                            69 3.16  63 3.16  41 3.16  33 3.17
  12  0.332  0.664  0.500- 179 2.41 204 2.41 207 2.41 191 2.41 194 2.41 210 2.41  30 3.16  59 3.16
                            15 3.16   5 3.16  34 3.16  53 3.16
  13  0.266  0.530  0.671- 206 2.40 209 2.41 173 2.41 176 2.41 181 2.41 212 2.41   9 3.16  32 3.16
                            60 3.17  56 3.17  18 3.17  37 3.18
  14  0.266  0.532  0.330- 211 2.41 205 2.41 172 2.41 175 2.41 208 2.41 180 2.41  10 3.16  61 3.16
                            57 3.16  33 3.16  38 3.16  19 3.16
  15  0.332  0.464  0.500- 153 2.41 186 2.41 188 2.41 204 2.41 150 2.41 179 2.41  39 3.16  59 3.16
                            12 3.16  34 3.16  20 3.16  62 3.17
  16  0.866  0.132  0.330-  90 2.41 124 2.41 132 2.41  97 2.41  94 2.41 102 2.41  26 3.16   7 3.16
                            47 3.16  66 3.16  61 3.17  63 3.17
  17  0.866  0.130  0.670- 122 2.41  96 2.41 104 2.41  88 2.41  91 2.41  93 2.41  64 3.16  48 3.16
                            27 3.16   8 3.16  60 3.16  65 3.17
  18  0.267  0.330  0.671- 152 2.39 206 2.39 167 2.41 170 2.41 181 2.41 178 2.43  50 3.16  65 3.17
                            13 3.17  60 3.17  37 3.18  43 3.23
  19  0.266  0.332  0.330- 154 2.41 166 2.41 169 2.41 205 2.41 180 2.41 151 2.41  44 3.16  38 3.16
                            66 3.16  14 3.16  70 3.17  61 3.17
  20  0.332  0.264  0.500- 153 2.41 202 2.41 183 2.41 144 2.41 150 2.41 147 2.41   1 3.16  39 3.16
                            62 3.16  15 3.16  45 3.16  71 3.17
  21  0.932  0.264  0.500- 168 2.41 123 2.41 131 2.41  81 2.41 165 2.41  80 2.41  31 3.16  73 3.16
                            62 3.16  49 3.16  22 3.16  59 3.17
  22  0.732  0.064  0.500-  80 2.41 131 2.41 101 2.41  76 2.41 110 2.41  95 2.41  23 3.16  30 3.16
                             6 3.16  31 3.16  21 3.16  49 3.17
  23  0.532  0.064  0.500- 219 2.41 136 2.41 101 2.41 197 2.41 222 2.41  95 2.41  22 3.16  45 3.16
                            31 3.17  71 3.17   5 3.17  30 3.17
  24  0.466  0.131  0.330- 184 2.41 203 2.41 200 2.41 148 2.41 146 2.41 220 2.41  70 3.16   4 3.16
                            35 3.16  29 3.16  44 3.17  26 3.17
  25  0.466  0.128  0.669- 182 2.40 223 2.40 221 2.41 155 2.41 149 2.41 185 2.42  43 3.09  28 3.14
                            36 3.15  27 3.16   3 3.16  50 3.18
  26  0.666  0.131  0.330- 203 2.41  84 2.41  78 2.41  97 2.41 220 2.41  94 2.41  16 3.16  29 3.16
                             7 3.16  35 3.17  47 3.17  24 3.17
  27  0.666  0.129  0.670-  93 2.40 221 2.41  79 2.41  96 2.41 223 2.41  85 2.41  36 3.15   8 3.15
                            25 3.16  17 3.16  48 3.16  28 3.17
  28  0.466  0.929  0.670- 199 2.40 221 2.40 223 2.40 134 2.41 215 2.41 218 2.41  25 3.14  32 3.14
                             8 3.16  27 3.17   9 3.17   3 3.17
  29  0.466  0.931  0.330- 201 2.41 217 2.41 203 2.41 220 2.41 198 2.41 214 2.41  33 3.16  26 3.16
                            10 3.16  24 3.16   4 3.17   7 3.17
  30  0.532  0.864  0.500- 197 2.41 194 2.41  76 2.41 136 2.41 110 2.41 191 2.41  12 3.16   6 3.16
                            34 3.16  22 3.16   5 3.17  23 3.17
  31  0.732  0.264  0.500-  81 2.41  77 2.41 101 2.41 123 2.41  95 2.41  87 2.41  21 3.16  73 3.16
                            22 3.16  23 3.17  45 3.17  40 3.17
  32  0.465  0.730  0.670- 193 2.38 134 2.40 196 2.41 199 2.41 212 2.41 209 2.41  28 3.14   9 3.15
                            13 3.16   8 3.17  37 3.18   2 3.18
  33  0.466  0.732  0.330- 201 2.41 211 2.41 192 2.41 195 2.41 198 2.41 208 2.41  29 3.16  38 3.16
                            14 3.16   7 3.16  11 3.17  10 3.17
  34  0.532  0.664  0.500- 191 2.41 186 2.41 116 2.41 194 2.41 188 2.41 119 2.41  39 3.16  46 3.16
                            30 3.16  15 3.16  12 3.16   6 3.16
  35  0.666  0.331  0.330- 127 2.41 184 2.41  84 2.41  78 2.41 200 2.41 130 2.41  44 3.16  24 3.16
                            41 3.16  68 3.16  47 3.17  26 3.17
  36  0.664  0.327  0.669-  85 2.40 182 2.40  79 2.41 126 2.41 185 2.42 129 2.45  43 3.10  27 3.15
                            25 3.15  48 3.17  58 3.18  42 3.20
  37  0.467  0.531  0.674- 193 2.39 181 2.39 196 2.43 206 2.43 190 2.43 225 2.57  42 3.13   2 3.16
                            32 3.18  18 3.18  13 3.18  43 3.30
  38  0.466  0.532  0.330- 189 2.41 180 2.41 195 2.41 205 2.41 192 2.41 135 2.41  19 3.16  41 3.16
                            11 3.16  33 3.16  14 3.16  44 3.17
  39  0.532  0.464  0.500- 128 2.41 186 2.41 133 2.41 188 2.41 183 2.41 202 2.41  34 3.16  15 3.16
                            20 3.16  45 3.16  40 3.16  46 3.17
  40  0.732  0.464  0.500-  77 2.41  87 2.41 113 2.41 109 2.41 128 2.41 133 2.41  46 3.16  54 3.16
                            39 3.16  45 3.17  31 3.17  73 3.17
  41  0.666  0.531  0.330- 115 2.41 189 2.41 127 2.41 118 2.41 130 2.41 135 2.41  44 3.16  38 3.16
                            35 3.16  11 3.16  68 3.17  69 3.17
  42  0.664  0.529  0.673- 240 1.89 129 2.39 117 2.40 190 2.41 114 2.42 126 2.42 225 2.75  37 3.13
                             2 3.17  58 3.18  55 3.19  43 3.20  36 3.20
  43  0.467  0.323  0.666- 240 1.74 185 2.36 190 2.38 182 2.40 178 2.40 152 2.43  25 3.09  36 3.10
                            50 3.13  42 3.20  18 3.23  37 3.30
  44  0.466  0.332  0.330- 154 2.41 184 2.41 189 2.41 151 2.41 135 2.41 200 2.41  41 3.16  19 3.16
                            70 3.16  35 3.16  24 3.17  38 3.17
  45  0.532  0.264  0.500- 219 2.41 183 2.41 222 2.41  77 2.41  87 2.41 202 2.41  39 3.16  20 3.16
                            23 3.16  40 3.17  31 3.17  71 3.17
  46  0.732  0.664  0.500- 116 2.41 125 2.41 133 2.41 128 2.41  86 2.41 119 2.41  34 3.16  40 3.16
                             6 3.16  67 3.16  39 3.17  54 3.17
  47  0.866  0.332  0.330- 124 2.41  84 2.41 120 2.41  78 2.41 102 2.41 111 2.41  68 3.16  61 3.16
                            16 3.16  57 3.16  35 3.17  26 3.17
  48  0.866  0.329  0.670- 121 2.40  79 2.41 122 2.41 112 2.41  85 2.41  88 2.41  17 3.16  56 3.16
                            27 3.16  60 3.17  36 3.17  58 3.17
  49  0.932  0.064  0.500- 159 2.41 131 2.41 100 2.41 162 2.41  89 2.41  80 2.41   6 3.16  67 3.16
                            21 3.16  22 3.17  62 3.17   1 3.17
  50  0.265  0.129  0.669- 164 2.40 155 2.41 161 2.41 149 2.41 152 2.41 178 2.42  43 3.13  65 3.16
                            74 3.16  18 3.16   3 3.17  25 3.18
  51  0.065  0.729  0.670- 157 2.41 140 2.41 137 2.41  82 2.41 143 2.41  92 2.41  55 3.15  56 3.16
                             3 3.16  58 3.16   9 3.17  74 3.17
  52  0.066  0.732  0.330-  83 2.41 142 2.41 158 2.41 145 2.41 103 2.41 139 2.41  57 3.16  10 3.16
                             4 3.16  69 3.16  75 3.16  68 3.17
  53  0.132  0.664  0.500- 207 2.41 174 2.41 210 2.41 156 2.41 171 2.41 177 2.41   5 3.16  59 3.16
                            73 3.16  54 3.16  72 3.16  12 3.16
  54  0.932  0.664  0.500- 109 2.41  86 2.41 156 2.41 113 2.41 177 2.41 125 2.41  72 3.16  53 3.16
                            40 3.16  67 3.16  73 3.16  46 3.17
  55  0.866  0.730  0.671- 117 2.40 114 2.40  82 2.41  99 2.41 224 2.41  92 2.41  51 3.15  74 3.16
                            64 3.16  58 3.17   2 3.17  42 3.19
  56  0.065  0.529  0.671- 157 2.41 112 2.41 173 2.41 176 2.41 121 2.41 137 2.41  48 3.16  51 3.16
                             9 3.16  13 3.17  58 3.17  60 3.17
  57  0.066  0.532  0.330- 120 2.41 175 2.41 145 2.41 158 2.41 111 2.41 172 2.41  52 3.16  61 3.16
                            10 3.16  68 3.16  14 3.16  47 3.16
  58  0.865  0.529  0.671- 112 2.41  92 2.41  82 2.41 121 2.41 129 2.41 126 2.41  51 3.16  56 3.17
                            48 3.17  55 3.17  42 3.18  36 3.18
  59  0.132  0.464  0.500- 168 2.41 165 2.41 171 2.41 174 2.41 179 2.41 204 2.41  15 3.16  12 3.16
                            53 3.16  62 3.16  73 3.16  21 3.17
  60  0.066  0.329  0.671- 170 2.41 176 2.41 173 2.41  88 2.41 122 2.41 167 2.41  65 3.16  17 3.16
                            13 3.17  48 3.17  56 3.17  18 3.17
  61  0.066  0.332  0.330- 169 2.41 124 2.41 166 2.41 175 2.41 172 2.41 102 2.41  57 3.16  47 3.16
                            14 3.16  66 3.17  16 3.17  19 3.17
  62  0.132  0.264  0.500- 168 2.41 153 2.41 165 2.41 150 2.41 162 2.41 159 2.41  20 3.16  21 3.16
                            59 3.16  15 3.17  49 3.17   1 3.17
  63  0.866  0.931  0.330- 105 2.41 187 2.41 132 2.41  90 2.41 107 2.41  98 2.41  75 3.16   7 3.16
                            11 3.16  69 3.16  66 3.17  16 3.17
  64  0.866  0.930  0.670- 104 2.41  99 2.41 106 2.41 108 2.41  91 2.41 224 2.41   2 3.16  17 3.16
                            74 3.16  65 3.16  55 3.16   8 3.17
  65  0.066  0.130  0.670- 161 2.41 104 2.41 170 2.41 167 2.41 164 2.41  91 2.41  50 3.16  74 3.16
                            64 3.16  60 3.16  17 3.17  18 3.17
  66  0.066  0.132  0.330- 163 2.41  90 2.41 169 2.41 132 2.41 160 2.41 166 2.41  19 3.16  70 3.16
                            16 3.16  61 3.17  63 3.17  75 3.17
  67  0.932  0.864  0.500-  86 2.41 138 2.41 125 2.41 100 2.41  89 2.41 141 2.41  46 3.16  72 3.16
                            54 3.16  49 3.16   1 3.16   6 3.16
  68  0.866  0.531  0.330-  83 2.41 120 2.41 127 2.41 103 2.41 111 2.41 130 2.41  47 3.16  69 3.16
                            57 3.16  35 3.16  41 3.17  52 3.17
  69  0.866  0.731  0.330- 187 2.41 115 2.41  83 2.41 103 2.41  98 2.41 118 2.41  52 3.16  68 3.16
                            11 3.16  63 3.16  75 3.17  41 3.17
  70  0.266  0.132  0.330- 154 2.41 160 2.41 163 2.41 148 2.41 146 2.41 151 2.41  24 3.16  44 3.16
                             4 3.16  66 3.16  19 3.17  75 3.17
  71  0.332  0.064  0.500- 219 2.41 147 2.41 216 2.41 144 2.41 222 2.41 213 2.41   1 3.16  72 3.16
                             5 3.16  23 3.17  20 3.17  45 3.17
  72  0.132  0.864  0.500- 156 2.41 213 2.41 216 2.41 138 2.41 141 2.41 177 2.41  54 3.16   5 3.16
                            71 3.16  67 3.16  53 3.16   1 3.16
  73  0.932  0.464  0.500- 113 2.41 109 2.41 123 2.41  81 2.41 171 2.41 174 2.41  53 3.16  21 3.16
                            31 3.16  54 3.16  59 3.16  40 3.17
  74  0.066  0.930  0.670-  99 2.40 140 2.41 161 2.41 224 2.41 164 2.41 143 2.41  55 3.16  50 3.16
                            65 3.16  64 3.16   3 3.16  51 3.17
  75  0.066  0.931  0.330- 187 2.41 163 2.41 139 2.41 142 2.41 160 2.41  98 2.41  63 3.16   4 3.16
                            52 3.16  69 3.17  70 3.17  66 3.17
  76  0.666  0.931  0.457-   6 2.41  30 2.41  22 2.41
  77  0.666  0.331  0.543-  40 2.41  31 2.41  45 2.41
  78  0.732  0.265  0.373-  26 2.41  47 2.41  35 2.41
  79  0.731  0.262  0.713-  36 2.41  27 2.41  48 2.41
  80  0.865  0.131  0.457-  22 2.41  21 2.41  49 2.41
  81  0.866  0.331  0.457-  31 2.41  73 2.41  21 2.41
  82  0.931  0.662  0.627-  55 2.41  58 2.41  51 2.41
  83  0.932  0.665  0.287-  52 2.41  68 2.41  69 2.41
  84  0.732  0.265  0.287-  26 2.41  47 2.41  35 2.41
  85  0.734  0.263  0.627-  36 2.40  48 2.41  27 2.41
  86  0.866  0.731  0.457-  67 2.41  54 2.41  46 2.41
  87  0.666  0.331  0.457-  40 2.41  31 2.41  45 2.41
  88  0.932  0.262  0.713-  17 2.41  60 2.41  48 2.41
  89  0.865  0.931  0.543-   6 2.41  49 2.41  67 2.41
  90  0.932  0.065  0.287-  16 2.41  66 2.41  63 2.41
  91  0.933  0.063  0.627-  17 2.41  65 2.41  64 2.41
  92  0.932  0.663  0.714-  58 2.41  55 2.41  51 2.41
  93  0.733  0.063  0.627-  27 2.40   8 2.41  17 2.41
  94  0.732  0.065  0.287-   7 2.41  16 2.41  26 2.41
  95  0.666  0.131  0.457-  31 2.41  23 2.41  22 2.41
  96  0.732  0.063  0.713-   8 2.41  27 2.41  17 2.41
  97  0.732  0.065  0.373-   7 2.41  16 2.41  26 2.41
  98  0.932  0.865  0.373-  75 2.41  63 2.41  69 2.41
  99  0.933  0.864  0.713-  74 2.40  55 2.41  64 2.41
 100  0.866  0.931  0.457-  49 2.41  67 2.41   6 2.41
 101  0.665  0.131  0.543-  31 2.41  23 2.41  22 2.41
 102  0.932  0.265  0.373-  47 2.41  16 2.41  61 2.41
 103  0.933  0.665  0.373-  52 2.41  68 2.41  69 2.41
 104  0.933  0.063  0.713-  64 2.41  17 2.41  65 2.41
 105  0.733  0.865  0.287-  63 2.41  11 2.41   7 2.41
 106  0.734  0.865  0.714-   2 2.40  64 2.41   8 2.41
 107  0.733  0.865  0.373-  63 2.41  11 2.41   7 2.41
 108  0.732  0.862  0.627-   2 2.41   8 2.41  64 2.41
 109  0.865  0.531  0.543-  73 2.41  54 2.41  40 2.41
 110  0.666  0.931  0.543-   6 2.41  30 2.41  22 2.41
 111  0.933  0.465  0.373-  57 2.41  68 2.41  47 2.41
 112  0.932  0.462  0.714-  58 2.41  56 2.41  48 2.41
 113  0.866  0.531  0.457-  73 2.41  54 2.41  40 2.41
 114  0.731  0.661  0.629-  55 2.40   2 2.41  42 2.42
 115  0.732  0.665  0.287-  41 2.41  11 2.41  69 2.41
 116  0.666  0.731  0.457-  46 2.41   6 2.41  34 2.41
 117  0.735  0.666  0.714-  55 2.40  42 2.40   2 2.41
 118  0.732  0.665  0.373-  11 2.41  41 2.41  69 2.41
 119  0.665  0.731  0.543-   6 2.41  34 2.41  46 2.41
 120  0.932  0.465  0.287-  57 2.41  47 2.41  68 2.41
 121  0.932  0.463  0.628-  48 2.40  58 2.41  56 2.41
 122  0.933  0.263  0.627-  17 2.41  48 2.41  60 2.41
 123  0.865  0.331  0.543-  73 2.41  31 2.41  21 2.41
 124  0.932  0.265  0.287-  47 2.41  16 2.41  61 2.41
 125  0.865  0.731  0.543-  46 2.41  67 2.41  54 2.41
 126  0.731  0.465  0.628-  36 2.41  58 2.41  42 2.42
 127  0.732  0.465  0.287-  35 2.41  41 2.41  68 2.41
 128  0.665  0.531  0.457-  39 2.41  46 2.41  40 2.41
 129  0.732  0.460  0.714-  42 2.39  58 2.41  36 2.45
 130  0.732  0.465  0.373-  41 2.41  68 2.41  35 2.41
 131  0.865  0.131  0.543-  22 2.41  49 2.41  21 2.41
 132  0.932  0.065  0.373-  16 2.41  63 2.41  66 2.41
 133  0.665  0.531  0.543-  39 2.41  46 2.41  40 2.41
 134  0.533  0.862  0.627-  32 2.40  28 2.41   8 2.41
 135  0.532  0.465  0.373-  44 2.41  38 2.41  41 2.41
 136  0.465  0.931  0.457-  23 2.41   5 2.41  30 2.41
 137  0.132  0.662  0.627-   9 2.41  51 2.41  56 2.41
 138  0.066  0.931  0.543-  67 2.41  72 2.41   1 2.41
 139  0.132  0.865  0.373-  75 2.41  52 2.41   4 2.41
 140  0.133  0.863  0.713-  51 2.41  74 2.41   3 2.41
 141  0.065  0.931  0.457-  72 2.41   1 2.41  67 2.41
 142  0.132  0.865  0.287-  52 2.41  75 2.41   4 2.41
 143  0.131  0.862  0.627-   3 2.41  51 2.41  74 2.41
 144  0.266  0.131  0.543-  71 2.41   1 2.41  20 2.41
 145  0.132  0.665  0.287-  52 2.41  57 2.41  10 2.41
 146  0.332  0.065  0.373-  70 2.41   4 2.41  24 2.41
 147  0.266  0.131  0.457-  71 2.41  20 2.41   1 2.41
 148  0.332  0.065  0.287-   4 2.41  70 2.41  24 2.41
 149  0.331  0.061  0.626-   3 2.41  50 2.41  25 2.41
 150  0.266  0.331  0.543-  15 2.41  62 2.41  20 2.41
 151  0.332  0.265  0.373-  44 2.41  70 2.41  19 2.41
 152  0.338  0.264  0.712-  18 2.39  50 2.41  43 2.43
 153  0.265  0.331  0.457-  15 2.41  20 2.41  62 2.41
 154  0.333  0.265  0.287-  44 2.41  19 2.41  70 2.41
 155  0.332  0.063  0.712-   3 2.40  50 2.41  25 2.41
 156  0.066  0.731  0.457-  72 2.41  53 2.41  54 2.41
 157  0.132  0.663  0.713-  51 2.41  56 2.41   9 2.41
 158  0.132  0.665  0.373-  52 2.41  57 2.41  10 2.41
 159  0.065  0.131  0.543-  49 2.41   1 2.41  62 2.41
 160  0.132  0.065  0.373-  70 2.41  75 2.41  66 2.41
 161  0.134  0.064  0.713-  65 2.41  50 2.41  74 2.41
 162  0.065  0.131  0.457-  49 2.41   1 2.41  62 2.41
 163  0.132  0.065  0.287-  70 2.41  75 2.41  66 2.41
 164  0.131  0.062  0.627-  50 2.40  74 2.41  65 2.41
 165  0.065  0.331  0.543-  59 2.41  62 2.41  21 2.41
 166  0.133  0.265  0.373-  19 2.41  61 2.41  66 2.41
 167  0.133  0.262  0.714-  18 2.41  65 2.41  60 2.41
 168  0.066  0.331  0.457-  21 2.41  62 2.41  59 2.41
 169  0.132  0.265  0.287-  61 2.41  19 2.41  66 2.41
 170  0.133  0.264  0.627-  60 2.41  65 2.41  18 2.41
 171  0.066  0.531  0.543-  53 2.41  73 2.41  59 2.41
 172  0.132  0.465  0.373-  57 2.41  14 2.41  61 2.41
 173  0.131  0.463  0.714-  13 2.41  60 2.41  56 2.41
 174  0.066  0.531  0.457-  53 2.41  73 2.41  59 2.41
 175  0.132  0.465  0.287-  57 2.41  61 2.41  14 2.41
 176  0.133  0.463  0.628-  60 2.41  56 2.41  13 2.41
 177  0.066  0.731  0.543-  53 2.41  54 2.41  72 2.41
 178  0.329  0.262  0.625-  43 2.40  50 2.42  18 2.43
 179  0.266  0.531  0.543-  12 2.41  15 2.41  59 2.41
 180  0.332  0.465  0.373-  38 2.41  19 2.41  14 2.41
 181  0.330  0.462  0.715-  37 2.39  13 2.41  18 2.41
 182  0.530  0.261  0.712-  43 2.40  25 2.40  36 2.40
 183  0.465  0.331  0.457-  45 2.41  39 2.41  20 2.41
 184  0.532  0.265  0.287-  24 2.41  44 2.41  35 2.41
 185  0.534  0.259  0.624-  43 2.36  25 2.42  36 2.42
 186  0.465  0.531  0.543-  39 2.41  15 2.41  34 2.41
 187  0.932  0.865  0.287-  69 2.41  75 2.41  63 2.41
 188  0.465  0.531  0.457-  15 2.41  39 2.41  34 2.41
 189  0.532  0.465  0.287-  38 2.41  41 2.41  44 2.41
 190  0.533  0.466  0.629-  43 2.38  42 2.41  37 2.43
 191  0.465  0.730  0.543-  34 2.41  12 2.41  30 2.41
 192  0.532  0.665  0.373-  38 2.41  33 2.41  11 2.41
 193  0.532  0.669  0.714-  32 2.38  37 2.39   2 2.41
 194  0.466  0.731  0.457-  34 2.41  30 2.41  12 2.41
 195  0.532  0.665  0.287-  11 2.41  38 2.41  33 2.41
 196  0.532  0.661  0.629-   2 2.41  32 2.41  37 2.43
 197  0.465  0.931  0.543-  30 2.41   5 2.41  23 2.41
 198  0.533  0.865  0.373-   7 2.41  33 2.41  29 2.41
 199  0.532  0.864  0.713-  28 2.40   8 2.41  32 2.41
 200  0.532  0.265  0.373-  24 2.41  44 2.41  35 2.41
 201  0.532  0.865  0.287-   7 2.41  33 2.41  29 2.41
 202  0.465  0.331  0.543-  20 2.41  39 2.41  45 2.41
 203  0.532  0.065  0.287-  26 2.41  24 2.41  29 2.41
 204  0.266  0.531  0.457-  15 2.41  12 2.41  59 2.41
 205  0.333  0.465  0.287-  38 2.41  14 2.41  19 2.41
 206  0.336  0.465  0.629-  18 2.39  13 2.40  37 2.43
 207  0.265  0.731  0.543-  53 2.41  12 2.41   5 2.41
 208  0.332  0.665  0.373-  10 2.41  14 2.41  33 2.41
 209  0.332  0.664  0.714-   9 2.40  13 2.41  32 2.41
 210  0.265  0.731  0.457-  53 2.41   5 2.41  12 2.41
 211  0.332  0.665  0.287-  14 2.41  10 2.41  33 2.41
 212  0.332  0.662  0.627-  32 2.41   9 2.41  13 2.41
 213  0.265  0.931  0.543-  72 2.41   5 2.41  71 2.41
 214  0.332  0.865  0.373-   4 2.41  10 2.41  29 2.41
 215  0.332  0.864  0.713-   9 2.41   3 2.41  28 2.41
 216  0.265  0.931  0.457-  72 2.41  71 2.41   5 2.41
 217  0.332  0.865  0.287-   4 2.41  10 2.41  29 2.41
 218  0.332  0.862  0.627-   3 2.41   9 2.41  28 2.41
 219  0.465  0.131  0.543-  71 2.41  45 2.41  23 2.41
 220  0.532  0.065  0.373-  29 2.41  26 2.41  24 2.41
 221  0.532  0.063  0.712-  28 2.40  25 2.41  27 2.41
 222  0.466  0.131  0.457-  45 2.41  71 2.41  23 2.41
 223  0.533  0.061  0.626-  25 2.40  28 2.40  27 2.41
 224  0.932  0.863  0.627-  55 2.41  74 2.41  64 2.41
 225  0.533  0.483  0.730- 226 1.80  37 2.57  42 2.75
 226  0.544  0.528  0.776- 227 1.40 231 1.41 225 1.80
 227  0.599  0.623  0.791- 236 1.09 229 1.40 226 1.40
 228  0.510  0.463  0.838- 234 1.09 231 1.39 230 1.40
 229  0.608  0.636  0.828- 233 1.09 227 1.40 230 1.40
 230  0.564  0.557  0.853- 228 1.40 229 1.40 232 1.50
 231  0.500  0.448  0.801- 235 1.09 228 1.39 226 1.41
 232  0.578  0.573  0.894- 238 1.10 239 1.10 237 1.10 230 1.50
 233  0.651  0.710  0.839- 229 1.09
 234  0.475  0.400  0.857- 228 1.09
 235  0.459  0.374  0.790- 231 1.09
 236  0.635  0.686  0.773- 227 1.09
 237  0.645  0.573  0.903- 232 1.10
 238  0.586  0.644  0.902- 232 1.10
 239  0.516  0.515  0.909- 232 1.10
 240  0.558  0.415  0.693-  43 1.74  42 1.89
 
  LATTYP: Found a hexagonal cell.
 ALAT       =    15.8227970706
 C/A-ratio  =     2.3015724012
  
  Lattice vectors:
  
 A1 = (   7.9113985353, -13.7029442220,   0.0000000000)
 A2 = (   7.9113985353,  13.7029442220,   0.0000000000)
 A3 = (   0.0000000000,   0.0000000000,  36.4173130480)


Analysis of symmetry for initial positions (statically):
=====================================================================
 Subroutine PRICEL returns:
 Original cell was already a primitive cell.
 

 Routine SETGRP: Setting up the symmetry group for a 
 hexagonal supercell.


 Subroutine GETGRP returns: Found  1 space group operations
 (whereof  1 operations were pure point group operations)
 out of a pool of 24 trial point group operations.


The static configuration has the point symmetry C_1 .


Analysis of symmetry for dynamics (positions and initial velocities):
=====================================================================
 Subroutine PRICEL returns:
 Original cell was already a primitive cell.
 

 Routine SETGRP: Setting up the symmetry group for a 
 hexagonal supercell.


 Subroutine GETGRP returns: Found  1 space group operations
 (whereof  1 operations were pure point group operations)
 out of a pool of 24 trial point group operations.


The dynamic configuration has the point symmetry C_1 .


Analysis of structural, dynamic, and magnetic symmetry:
=====================================================================
 Subroutine PRICEL returns:
 Original cell was already a primitive cell.
 

 Routine SETGRP: Setting up the symmetry group for a 
 hexagonal supercell.


 Subroutine GETGRP returns: Found  1 space group operations
 (whereof  1 operations were pure point group operations)
 out of a pool of 24 trial point group operations.


The overall configuration has the point symmetry C_1 .


 Subroutine INISYM returns: Found  1 space group operations
 (whereof  1 operations are pure point group operations),
 and found     1 'primitive' translations


----------------------------------------------------------------------------------------

                                     Primitive cell                                     

  volume of cell :    7895.9620

  direct lattice vectors                    reciprocal lattice vectors
     7.911398535-13.702944222  0.000000000     0.063199951 -0.036488509  0.000000000
     7.911398535 13.702944222  0.000000000     0.063199951  0.036488509 -0.000000000
     0.000000000  0.000000000 36.417313048    -0.000000000  0.000000000  0.027459467

  length of vectors
    15.822797071 15.822797071 36.417313048     0.072977017  0.072977017  0.027459467

  position of ions in fractional coordinates (direct lattice)
     0.132202593  0.063955829  0.500069712
     0.666255636  0.730872062  0.671317268
     0.265140714  0.928989241  0.669532836
     0.265629156  0.931522954  0.329981304
     0.332081844  0.863894729  0.500022340
     0.732162569  0.863964443  0.500107195
     0.665822680  0.931471926  0.330025893
     0.665789969  0.929811232  0.670196536
     0.265197920  0.729406603  0.670261070
     0.265663111  0.731540534  0.330028603
     0.665727376  0.731505406  0.330067098
     0.332210570  0.663978252  0.500050206
     0.265572054  0.529883325  0.671129437
     0.265704835  0.531604200  0.330023344
     0.332194019  0.464024480  0.500042178
     0.865676322  0.131542426  0.329998820
     0.865853000  0.129577402  0.670197126
     0.266690556  0.329874962  0.670732707
     0.265791897  0.331624021  0.330014068
     0.332118738  0.263967736  0.500089665
     0.932138008  0.263947658  0.500050439
     0.732091425  0.063942643  0.500021306
     0.532178333  0.063994811  0.499985707
     0.465601692  0.131445727  0.330054241
     0.465615950  0.127691306  0.668729439
     0.665716246  0.131435852  0.330051140
     0.665775993  0.129169108  0.669572916
     0.465531619  0.929270516  0.669705941
     0.465714418  0.931490828  0.330066228
     0.532176899  0.863863794  0.500051360
     0.732211521  0.264018057  0.500002707
     0.464947693  0.730423805  0.670368914
     0.465728431  0.731571748  0.330078870
     0.532185358  0.663925219  0.500089252
     0.665626033  0.331424881  0.330120516
     0.664469850  0.327437246  0.669172327
     0.467029976  0.530952404  0.674133063
     0.465711172  0.531581342  0.330073677
     0.532064516  0.463983437  0.500077456
     0.732154089  0.464110845  0.500037454
     0.665598287  0.531420931  0.330099552
     0.663877066  0.529154519  0.673084360
     0.466988627  0.323495870  0.666011998
     0.465665481  0.331506580  0.330110091
     0.532166708  0.264016468  0.500049084
     0.732142932  0.664021832  0.500148871
     0.865707352  0.331530716  0.330104970
     0.865614390  0.329310257  0.670294877
     0.932109496  0.063922544  0.500098210
     0.265366117  0.129312825  0.668993469
     0.065056381  0.729209110  0.670310594
     0.065699206  0.731526655  0.329984019
     0.132183391  0.663937405  0.500079622
     0.932247119  0.663994245  0.500145822
     0.866344053  0.730201633  0.670599483
     0.065276062  0.529427757  0.670558508
     0.065702983  0.531589946  0.330025507
     0.865031546  0.529255663  0.670851361
     0.132272199  0.464041327  0.500065270
     0.065856576  0.329495238  0.670643419
     0.065721715  0.331647597  0.330023174
     0.132145175  0.263985915  0.500092887
     0.865768269  0.931488229  0.330045383
     0.865945191  0.930000540  0.670273867
     0.066034142  0.129687810  0.670065823
     0.065746843  0.131630216  0.330015769
     0.932181049  0.863955172  0.500117996
     0.865642574  0.531430997  0.330069817
     0.865674175  0.731426776  0.330074827
     0.265735472  0.131560970  0.330011409
     0.332102422  0.063912775  0.499983124
     0.132143861  0.863908617  0.500084778
     0.932221548  0.463970618  0.500081725
     0.065641507  0.929725164  0.669948158
     0.065673074  0.931498401  0.330032657
     0.665538156  0.930509164  0.456957980
     0.665654403  0.330790558  0.543083964
     0.732335550  0.264673323  0.373178989
     0.731012585  0.262063461  0.712740815
     0.865427400  0.130540640  0.456959982
     0.865582811  0.330740381  0.456942256
     0.931130039  0.661898895  0.627458077
     0.932276920  0.664696850  0.286991546
     0.732412015  0.264827114  0.287064972
     0.733703056  0.263086960  0.626563770
     0.865629984  0.730692211  0.457057966
     0.665542973  0.330820239  0.456953404
     0.931919213  0.262384929  0.713486302
     0.865454172  0.930604649  0.543203172
     0.932335612  0.064858757  0.286985605
     0.932504948  0.063120960  0.626987399
     0.932381431  0.662964186  0.713725125
     0.732967205  0.062602043  0.626830553
     0.732310136  0.064736085  0.286929541
     0.665571319  0.130742608  0.456869249
     0.732198612  0.063384029  0.713077204
     0.732427859  0.064748186  0.373113592
     0.932407050  0.864811589  0.373179541
     0.933403046  0.864183988  0.713364070
     0.865521327  0.930592571  0.457010065
     0.665476487  0.130720092  0.543099971
     0.932382854  0.264784679  0.373159519
     0.932547464  0.664834664  0.373125997
     0.932972883  0.063341197  0.713222860
     0.732543401  0.864767503  0.286974808
     0.733502120  0.865162021  0.713754543
     0.732508296  0.864843410  0.373183217
     0.731938486  0.862084901  0.627393055
     0.865471484  0.530526658  0.543155910
     0.665506262  0.930657589  0.543168345
     0.932504301  0.464953136  0.373167522
     0.931869243  0.462201193  0.713576946
     0.865681818  0.530750855  0.457017798
     0.730696579  0.661024606  0.628784550
     0.732296018  0.664704448  0.287025874
     0.665603059  0.730674835  0.457041892
     0.735491897  0.666092069  0.714224031
     0.732218227  0.664787331  0.373165563
     0.665411203  0.730701941  0.543280649
     0.932347451  0.464772882  0.287022022
     0.931650925  0.462996274  0.627524921
     0.932943364  0.263202915  0.627314623
     0.865436893  0.330584805  0.543133811
     0.932310610  0.265001617  0.287007200
     0.865484773  0.730659272  0.543224790
     0.730574052  0.465396174  0.628148698
     0.732192410  0.464679126  0.287039436
     0.665257775  0.530778839  0.457015638
     0.731667470  0.460291292  0.714029395
     0.732331647  0.464873514  0.373225274
     0.865318265  0.130567666  0.543138910
     0.932306449  0.064899864  0.373082382
     0.665296609  0.530558327  0.543180208
     0.532530947  0.862364337  0.626905133
     0.532218111  0.464834085  0.373208739
     0.465472816  0.930523772  0.456959109
     0.131756169  0.662460847  0.627262387
     0.065564423  0.930638160  0.543173197
     0.132309563  0.864828560  0.373102993
     0.132592898  0.863348062  0.712972120
     0.065482720  0.930565501  0.456982776
     0.132235150  0.864815743  0.286932967
     0.131155666  0.861800005  0.626868717
     0.265566928  0.130543439  0.543153292
     0.132373989  0.664862399  0.286926582
     0.332186936  0.064748470  0.373117637
     0.265532564  0.130721913  0.456922799
     0.332354396  0.064872399  0.286929647
     0.331067182  0.061304699  0.625960471
     0.265533137  0.330772978  0.543175099
     0.332271900  0.264813696  0.373168193
     0.337547880  0.263987847  0.711570410
     0.265482626  0.330631960  0.457002337
     0.332523043  0.264963624  0.287008778
     0.332439585  0.063118916  0.712001064
     0.065508349  0.730638841  0.457028603
     0.132077138  0.663185414  0.713401952
     0.132287445  0.664929972  0.373104694
     0.065450396  0.130536285  0.543170528
     0.132466311  0.064886062  0.373093115
     0.133859114  0.063634515  0.712771116
     0.065427530  0.130586148  0.457000845
     0.132347605  0.064839341  0.286981651
     0.131094986  0.062342941  0.626519325
     0.065484580  0.330721867  0.543165530
     0.132522208  0.265112368  0.373101623
     0.132851978  0.262257864  0.713509176
     0.065510829  0.330657699  0.456994482
     0.132426557  0.265061107  0.286960538
     0.133310986  0.264046315  0.627453077
     0.065555980  0.530639040  0.543177506
     0.132393270  0.464963897  0.373126474
     0.131421787  0.462628160  0.713832451
     0.065545472  0.530712304  0.456978449
     0.132332794  0.465003960  0.286945405
     0.132859029  0.463064567  0.627692048
     0.065647664  0.730598931  0.543234435
     0.329111057  0.262321851  0.625414995
     0.265671626  0.530763411  0.543172660
     0.332422697  0.464934159  0.373125902
     0.329661367  0.461610150  0.714745097
     0.530399524  0.260614096  0.711633974
     0.465427368  0.330654214  0.456982446
     0.532314511  0.264828696  0.287057857
     0.534091271  0.258967686  0.624361823
     0.465418131  0.530582985  0.543157447
     0.932308038  0.864668972  0.287001483
     0.465493776  0.530666225  0.456959939
     0.532256939  0.464871286  0.287046098
     0.532947813  0.466259041  0.628956402
     0.465479416  0.730458400  0.543190899
     0.532341345  0.664872725  0.373155582
     0.532373425  0.668948196  0.714044551
     0.465587817  0.730540864  0.456943013
     0.532455714  0.664899216  0.287017381
     0.531833877  0.660750975  0.628810050
     0.465472372  0.930591497  0.543092458
     0.532612149  0.864941706  0.373181706
     0.532282006  0.864345103  0.713161633
     0.532177343  0.264618326  0.373201282
     0.532434537  0.864862779  0.287010238
     0.465434541  0.330613652  0.543182836
     0.532441803  0.064942579  0.287029369
     0.265612541  0.530705945  0.456921970
     0.332516524  0.465056263  0.286962374
     0.336250506  0.465263936  0.629156536
     0.265436038  0.730533768  0.543163286
     0.332233442  0.664867320  0.373176825
     0.331890469  0.664045194  0.713730450
     0.265340299  0.730540765  0.456940299
     0.332437809  0.664930356  0.287002261
     0.331538160  0.661895319  0.627337700
     0.265444266  0.930585789  0.543131957
     0.332168907  0.864892839  0.373146329
     0.332231934  0.863573033  0.712851248
     0.265272346  0.930537011  0.456917695
     0.332400389  0.864876703  0.286968983
     0.331709280  0.861709343  0.626730814
     0.465342766  0.130540650  0.543029988
     0.532374330  0.064865512  0.373144791
     0.532341631  0.062947472  0.712486866
     0.465542506  0.130816545  0.456899155
     0.532923537  0.061092270  0.626112969
     0.931802264  0.862511208  0.627080415
     0.533412651  0.482964932  0.729941335
     0.544203015  0.528136996  0.776141635
     0.598795969  0.622808977  0.790527761
     0.509921707  0.463172210  0.838331414
     0.607837184  0.636284382  0.828486031
     0.564313599  0.557436592  0.852999679
     0.500240900  0.448421746  0.800565707
     0.578193676  0.573017925  0.893802729
     0.650626389  0.710444372  0.839321055
     0.475452269  0.400152500  0.856717279
     0.459424886  0.374256649  0.789506436
     0.635350240  0.686326325  0.772665894
     0.644622331  0.572520101  0.902683738
     0.586445823  0.643661183  0.901946152
     0.516441129  0.514892133  0.909026067
     0.557988907  0.414529559  0.692584120

  ion indices of the primitive-cell ions
   primitive index   ion index
                 1           1
                 2           2
                 3           3
                 4           4
                 5           5
                 6           6
                 7           7
                 8           8
                 9           9
                10          10
                11          11
                12          12
                13          13
                14          14
                15          15
                16          16
                17          17
                18          18
                19          19
                20          20
                21          21
                22          22
                23          23
                24          24
                25          25
                26          26
                27          27
                28          28
                29          29
                30          30
                31          31
                32          32
                33          33
                34          34
                35          35
                36          36
                37          37
                38          38
                39          39
                40          40
                41          41
                42          42
                43          43
                44          44
                45          45
                46          46
                47          47
                48          48
                49          49
                50          50
                51          51
                52          52
                53          53
                54          54
                55          55
                56          56
                57          57
                58          58
                59          59
                60          60
                61          61
                62          62
                63          63
                64          64
                65          65
                66          66
                67          67
                68          68
                69          69
                70          70
                71          71
                72          72
                73          73
                74          74
                75          75
                76          76
                77          77
                78          78
                79          79
                80          80
                81          81
                82          82
                83          83
                84          84
                85          85
                86          86
                87          87
                88          88
                89          89
                90          90
                91          91
                92          92
                93          93
                94          94
                95          95
                96          96
                97          97
                98          98
                99          99
               100         100
               101         101
               102         102
               103         103
               104         104
               105         105
               106         106
               107         107
               108         108
               109         109
               110         110
               111         111
               112         112
               113         113
               114         114
               115         115
               116         116
               117         117
               118         118
               119         119
               120         120
               121         121
               122         122
               123         123
               124         124
               125         125
               126         126
               127         127
               128         128
               129         129
               130         130
               131         131
               132         132
               133         133
               134         134
               135         135
               136         136
               137         137
               138         138
               139         139
               140         140
               141         141
               142         142
               143         143
               144         144
               145         145
               146         146
               147         147
               148         148
               149         149
               150         150
               151         151
               152         152
               153         153
               154         154
               155         155
               156         156
               157         157
               158         158
               159         159
               160         160
               161         161
               162         162
               163         163
               164         164
               165         165
               166         166
               167         167
               168         168
               169         169
               170         170
               171         171
               172         172
               173         173
               174         174
               175         175
               176         176
               177         177
               178         178
               179         179
               180         180
               181         181
               182         182
               183         183
               184         184
               185         185
               186         186
               187         187
               188         188
               189         189
               190         190
               191         191
               192         192
               193         193
               194         194
               195         195
               196         196
               197         197
               198         198
               199         199
               200         200
               201         201
               202         202
               203         203
               204         204
               205         205
               206         206
               207         207
               208         208
               209         209
               210         210
               211         211
               212         212
               213         213
               214         214
               215         215
               216         216
               217         217
               218         218
               219         219
               220         220
               221         221
               222         222
               223         223
               224         224
               225         225
               226         226
               227         227
               228         228
               229         229
               230         230
               231         231
               232         232
               233         233
               234         234
               235         235
               236         236
               237         237
               238         238
               239         239
               240         240

----------------------------------------------------------------------------------------

 
 
 KPOINTS: K-Points                                

Automatic generation of k-mesh.
 Grid dimensions read from file:
 generate k-points for:    3    3    1

 Generating k-lattice:

  Cartesian coordinates                     Fractional coordinates (reciprocal lattice)
     0.021066650 -0.012162836  0.000000000     0.333333333  0.000000000  0.000000000
     0.021066650  0.012162836 -0.000000000    -0.000000000  0.333333333  0.000000000
    -0.000000000  0.000000000  0.027459467     0.000000000  0.000000000  1.000000000

  Length of vectors
     0.024325672  0.024325672  0.027459467

  Shift w.r.t. Gamma in fractional coordinates (k-lattice)
     0.000000000  0.000000000  0.000000000

 
 Subroutine IBZKPT returns following result:
 ===========================================
 
 Found      5 irreducible k-points:
 
 Following reciprocal coordinates:
            Coordinates               Weight
  0.000000  0.000000  0.000000      1.000000
  0.333333  0.000000  0.000000      2.000000
  0.000000  0.333333  0.000000      2.000000
 -0.333333  0.333333  0.000000      2.000000
  0.333333  0.333333  0.000000      2.000000
 
 Following cartesian coordinates:
            Coordinates               Weight
  0.000000 -0.000000  0.000000      1.000000
  0.021067 -0.012163  0.000000      2.000000
  0.021067  0.012163  0.000000      2.000000
  0.000000  0.024326  0.000000      2.000000
  0.042133 -0.000000  0.000000      2.000000
 


--------------------------------------------------------------------------------------------------------




 Dimension of arrays:
   k-points           NKPTS =      5   k-points in BZ     NKDIM =      5   number of bands    NBANDS=   1332
   number of dos      NEDOS =    301   number of ions     NIONS =    240
   non local maximal  LDIM  =      6   non local SUM 2l+1 LMDIM =     18
   total plane-waves  NPLWV = ******
   max r-space proj   IRMAX =   3534   max aug-charges    IRDMAX=  11632
   dimension x,y,z NGX =    96 NGY =   96 NGZ =  224
   dimension x,y,z NGXF=   192 NGYF=  192 NGZF=  448
   support grid    NGXF=   192 NGYF=  192 NGZF=  448
   ions per type =              75 150   7   8
   NGX,Y,Z   is equivalent  to a cutoff of  10.09, 10.09, 10.23 a.u.
   NGXF,Y,Z  is equivalent  to a cutoff of  20.17, 20.17, 20.45 a.u.

 SYSTEM =  unknown system                          
 POSCAR =  Mo S  C  H                              

 Startparameter for this run:
   NWRITE =      2    write-flag & timer
   PREC   = normal    normal or accurate (medium, high low for compatibility)
   ISTART =      0    job   : 0-new  1-cont  2-samecut
   ICHARG =      2    charge: 1-file 2-atom 10-const
   ISPIN  =      2    spin polarized calculation?
   LNONCOLLINEAR =      F non collinear calculations
   LSORBIT =      F    spin-orbit coupling
   INIWAV =      1    electr: 0-lowe 1-rand  2-diag
   LASPH  =      T    aspherical Exc in radial PAW
 Electronic Relaxation 1
   ENCUT  =  600.0 eV  44.10 Ry    6.64 a.u.  31.60 31.60 72.73*2*pi/ulx,y,z
   ENINI  =  600.0     initial cutoff
   ENAUG  =  644.9 eV  augmentation charge cutoff
   NELM   =   2000;   NELMIN=  2; NELMDL=  0     # of ELM steps 
   EDIFF  = 0.1E-05   stopping-criterion for ELM
   LREAL  =      T    real-space projection
   NLSPLINE    = F    spline interpolate recip. space projectors
   LCOMPAT=      F    compatible to vasp.4.4
   GGA_COMPAT  = T    GGA compatible to vasp.4.4-vasp.4.6
   LMAXPAW     = -100 max onsite density
   LMAXMIX     =    2 max onsite mixed and CHGCAR
   VOSKOWN=      0    Vosko Wilk Nusair interpolation
   ROPT   =   -0.00050  -0.00050  -0.00050  -0.00050
 Ionic relaxation
   EDIFFG = -.3E-01   stopping-criterion for IOM
   NSW    =   5000    number of steps for IOM
   NBLOCK =      1;   KBLOCK =   5000    inner block; outer block 
   IBRION =      2    ionic relax: 0-MD 1-quasi-New 2-CG
   NFREE  =      1    steps in history (QN), initial steepest desc. (CG)
   ISIF   =      2    stress and relaxation
   IWAVPR =     11    prediction:  0-non 1-charg 2-wave 3-comb
   ISYM   =      2    0-nonsym 1-usesym 2-fastsym
   LCORR  =      T    Harris-Foulkes like correction to forces

   POTIM  = 0.5000    time-step for ionic-motion
   TEIN   =    0.0    initial temperature
   TEBEG  =    0.0;   TEEND  =   0.0 temperature during run
   SMASS  =  -3.00    Nose mass-parameter (am)
   estimated Nose-frequenzy (Omega)   =  0.10E-29 period in steps = 0.13E+47 mass=  -0.572E-26a.u.
   SCALEE = 1.0000    scale energy and forces
   NPACO  =    256;   APACO  = 10.0  distance and # of slots for P.C.
   PSTRESS=    0.0 pullay stress

  Mass of Ions in am
   POMASS =  95.94 32.07 12.01  1.00
  Ionic Valenz
   ZVAL   =  14.00  6.00  4.00  1.00
  Atomic Wigner-Seitz radii
   RWIGS  =  -1.00 -1.00 -1.00 -1.00
  virtual crystal weights 
   VCA    =   1.00  1.00  1.00  1.00
   NELECT =    1986.0000    total number of electrons
   NUPDOWN=      -1.0000    fix difference up-down

 DOS related values:
   EMIN   =  10.00;   EMAX   =-10.00  energy-range for DOS
   EFERMI =   0.00
   ISMEAR =     0;   SIGMA  =   0.05  broadening in eV -4-tet -1-fermi 0-gaus

 Electronic relaxation 2 (details)
   IALGO  =     38    algorithm
   LDIAG  =      T    sub-space diagonalisation (order eigenvalues)
   LSUBROT=      F    optimize rotation matrix (better conditioning)
   TURBO    =      0    0=normal 1=particle mesh
   IRESTART =      0    0=no restart 2=restart with 2 vectors
   NREBOOT  =      0    no. of reboots
   NMIN     =      0    reboot dimension
   EREF     =   0.00    reference energy to select bands
   IMIX   =      4    mixing-type and parameters
     AMIX     =   0.40;   BMIX     =  1.00
     AMIX_MAG =   1.60;   BMIX_MAG =  1.00
     AMIN     =   0.10
     WC   =   100.;   INIMIX=   1;  MIXPRE=   1;  MAXMIX= -45

 Intra band minimization:
   WEIMIN = 0.0010     energy-eigenvalue tresh-hold
   EBREAK =  0.19E-09  absolut break condition
   DEPER  =   0.30     relativ break condition  

   TIME   =   0.40     timestep for ELM

  volume/ion in A,a.u.               =      32.90       222.02
  Fermi-wavevector in a.u.,A,eV,Ry     =   1.033395  1.952833 14.529724  1.067905
  Thomas-Fermi vector in A             =   2.167639
 
 Write flags
   LWAVE        =      F    write WAVECAR
   LDOWNSAMPLE  =      F    k-point downsampling of WAVECAR
   LCHARG       =      F    write CHGCAR
   LVTOT        =      F    write LOCPOT, total local potential
   LVHAR        =      F    write LOCPOT, Hartree potential only
   LELF         =      F    write electronic localiz. function (ELF)
   LORBIT       =      0    0 simple, 1 ext, 2 COOP (PROOUT), +10 PAW based schemes


 Dipole corrections
   LMONO  =      F    monopole corrections only (constant potential shift)
   LDIPOL =      T    correct potential (dipole corrections)
   IDIPOL =      3    1-x, 2-y, 3-z, 4-all directions 
   EPSILON=  1.0000000 bulk dielectric constant

 Exchange correlation treatment:
   GGA     =    MK    GGA type
   LEXCH   =    43    internal setting for exchange type
   LIBXC   =     F    Libxc                    
   VOSKOWN =     0    Vosko Wilk Nusair interpolation
   LHFCALC =     F    Hartree Fock is set to
   LHFONE  =     F    Hartree Fock one center treatment
   AEXX    =    0.0000 exact exchange contribution

 vdW DFT:
   LUSE_VDW   =     T    switch on vdW DFT
   Zab_VDW    =-.8491    correlation parameter
   PARAM1     =0.1234
   PARAM2     =1.0000
   PARAM3     =0.0000
   -- rVV10 --
   BPARAM     = 6.3000
   CPARAM     = 0.0093

 Linear response parameters
   LEPSILON=     F    determine dielectric tensor
   LRPA    =     F    only Hartree local field effects (RPA)
   LNABLA  =     F    use nabla operator in PAW spheres
   LVEL    =     F    velocity operator in full k-point grid
   CSHIFT  =0.1000    complex shift for real part using Kramers Kronig
   OMEGAMAX=  -1.0    maximum frequency
   DEG_THRESHOLD= 0.2000000E-02 threshold for treating states as degnerate
   RTIME   =   -0.100 relaxation time in fs
  (WPLASMAI=    0.000 imaginary part of plasma frequency in eV, 0.658/RTIME)
   DFIELD  = 0.0000000 0.0000000 0.0000000 field for delta impulse in time
 
  Optional k-point grid parameters
   LKPOINTS_OPT  =     F    use optional k-point grid
   KPOINTS_OPT_MODE=     1    mode for optional k-point grid
 
 Orbital magnetization related:
   ORBITALMAG=     F  switch on orbital magnetization
   LCHIMAG   =     F  perturbation theory with respect to B field
   DQ        =  0.001000  dq finite difference perturbation B field
   LLRAUG    =     F  two centre corrections for induced B field



--------------------------------------------------------------------------------------------------------


 conjugate gradient relaxation of ions
 charge density and potential will be updated during run
 spin polarized calculation
 Variant of blocked Davidson
 Davidson routine will perform the subspace rotation
 perform sub-space diagonalisation
    after iterative eigenvector-optimisation
 modified Broyden-mixing scheme, WC =      100.0
 initial mixing is a Kerker type mixing with AMIX =  0.4000 and BMIX =      1.0000
[...]
      9.46291      1.80522     18.21191         0.001130      0.003736      0.000920
      7.88807     -4.57954     12.02210         0.002633     -0.002141      0.001051
      7.84737     -4.61834     24.36946        -0.000164      0.000407      0.002455
      7.89544      0.87593     24.55011        -0.008303      0.001152     -0.011862
      7.88998      0.90262     12.02040        -0.000144     -0.003410     -0.006919
      7.88013     -0.93291     18.21148        -0.003558     -0.002817      0.002559
      9.46413     -3.67298     18.21002         0.004314     -0.003732      0.002728
      9.47010     -1.83862     12.02134         0.000331      0.001405     -0.003313
      9.43855     -1.84610     24.51192        -0.028009      0.004778      0.000243
      6.25384     -1.96627     24.25437        -0.017551     -0.008668      0.003451
      6.30675     -1.83837     12.02172         0.001775     -0.002089     -0.004562
      6.29892     -3.67445     18.21044         0.001908     -0.000188     -0.004454
     11.04562     -0.93346     18.21408        -0.002606     -0.004354      0.000796
      9.47183     -7.31979     12.02154         0.000298     -0.003596     -0.000972
      9.45353     -7.34895     24.41034        -0.003982      0.007347      0.003767
      7.88001    -11.89672     18.21223        -0.001727     -0.002030     -0.008044
      3.12246     -1.86433     24.36294         0.003543      0.002034     -0.003720
      6.28375      9.10085     24.41091         0.004808      0.003856      0.001571
      6.30717      9.12380     12.01713        -0.004934     -0.001434      0.000037
      6.29843      7.28660     18.21156        -0.000359      0.004810      0.006188
     12.62850     -3.67585     18.21397        -0.005176      0.001537     -0.000633
     12.63091     -1.86555     24.42143         0.001031      0.003335      0.000460
      4.70494      6.36024     24.41994         0.004854     -0.002358     -0.013764
      4.72542      6.38402     12.01864         0.000670     -0.004048      0.001477
     11.03076     -4.60112     24.43060         0.002607     -0.000719     -0.002303
      4.71767      4.54621     18.21103        -0.000055      0.002279      0.002425
      3.12779      3.61263     24.42303        -0.002872      0.009461     -0.002147
      3.14375      3.64397     12.01856        -0.001182     -0.001784     -0.001600
      3.13395      1.80661     18.21204        -0.002331     -0.005852      0.000935
     14.21881      0.90056     12.01937        -0.004210     -0.002439     -0.000658
     14.20844      0.87775     24.40957        -0.011267     -0.008255     -0.008672
      1.54843      0.87224     24.40200        -0.008027      0.008041      0.001324
      1.56153      0.90280     12.01829         0.000586     -0.002808      0.000080
     14.20995     -0.93490     18.21295         0.006213      0.004412      0.002255
     11.05281     -4.57968     12.02026        -0.001168      0.000380     -0.002018
     12.63530     -1.83958     12.02044        -0.006705     -0.003717      0.001559
      3.14317     -1.83859     12.01813        -0.007408      0.000143     -0.002694
      3.13303     -3.67499     18.20804        -0.005332     -0.000894     -0.003032
      7.88017     10.02733     18.21174         0.001344      0.001674      0.000258
     11.04583     -6.41642     18.21163        -0.002429     -0.002805     -0.004878
      7.87474     11.84049     24.39771        -0.001111     -0.004258     -0.000730
      7.88902     11.86436     12.01890        -0.005859     -0.001997     -0.007530
     12.62697      3.63088     16.64118         0.001395     -0.004388     -0.001815
      7.88327     -4.58862     19.77766         0.001328     -0.002747     -0.004371
      7.88773     -6.40835     13.59018        -0.003304     -0.002223     -0.004962
      7.85662     -6.42598     25.95611         0.009187     -0.007195     -0.006329
      7.87950    -10.07011     16.64125         0.004810     -0.001158     -0.001921
      9.46459     -7.32892     16.64061         0.000919      0.001712      0.004983
     12.60309     -3.68926     22.85034        -0.003697      0.008045     -0.001043
     12.63430     -3.66663     10.45146        -0.001879      0.005221      0.006122
      7.88956     -6.40729     10.45413        -0.001098     -0.002087     -0.000529
      7.88600     -6.44883     22.81777        -0.010936     -0.007097     -0.004929
     12.62914     -1.84904     16.64482        -0.000754      0.002720     -0.003379
      7.88263     -4.58669     16.64102        -0.002292     -0.003395      0.003919
      9.44862     -9.17459     25.98325         0.006459      0.002414     -0.003077
     14.20934      0.89275     19.78200        -0.000597     -0.000468     -0.001253
      7.88920    -11.88699     10.45124        -0.001299     -0.003199      0.001808
      7.87679    -11.91312     22.83320         0.004284     -0.005023      0.010517
     12.62141     -3.69181     25.99195         0.005095     -0.007205      0.001811
      6.29407     -9.18598     22.82748        -0.001043      0.000535     -0.009460
      6.30575     -9.14773     10.44920         0.006105     -0.005796      0.004560
      6.29996     -7.32873     16.63795        -0.000381      0.001889      0.004699
      6.29417     -9.16473     25.96836         0.004611     -0.001876     -0.000490
      6.30678     -9.14918     13.58779         0.000847     -0.000645      0.001262
     14.21851     -0.92626     13.59020        -0.001449     -0.000045      0.000662
     14.22143     -0.94850     25.97880         0.004006      0.005944      0.000733
     14.20977      0.89167     16.64308        -0.001142      0.004405      0.002678
      6.29903     -7.32774     19.77824         0.000947     -0.003459      0.000238
      9.47127     -9.14806     13.58947        -0.000417      0.000692      0.001391
     12.63753     -3.66845     13.58825        -0.004369     -0.000349     -0.003811
      7.88224    -11.91651     25.97366         0.007530     -0.004165      0.008615
     12.63696      1.81186     10.45085         0.002145     -0.002751      0.009397
     12.64767      1.80413     25.99302         0.003297      0.002274      0.006509
     12.63729      1.81338     13.59033         0.003009     -0.003890     -0.013436
     12.61095      1.78339     22.84797         0.011347      0.006456      0.003752
     11.04430     -4.58973     19.78028        -0.008337      0.004538     -0.001896
     12.62789      3.63335     19.78073        -0.000948     -0.004448     -0.002051
     11.05584     -6.40683     13.58976        -0.004890     -0.004727      0.000561
     11.02905     -6.43584     25.98656        -0.003323     -0.005419     -0.000204
     11.04774     -4.58954     16.64336        -0.004736      0.000152      0.001487
     11.01046     -0.95471     22.89864         0.000948      0.001193     -0.006357
     11.05223     -0.92620     10.45271        -0.001497      0.007592      0.004683
     11.04651      0.89167     16.64424        -0.003081     -0.003746      0.000983
     11.08849     -0.95098     26.01012         0.008623      0.003551      0.002729
     11.05227     -0.92400     13.58969         0.001605     -0.005655     -0.003518
     11.04521      0.89468     19.78482        -0.001812     -0.002547     -0.001775
     11.05318     -6.40715     10.45257         0.000926     -0.000967      0.004688
     11.03361     -6.42195     22.85277         0.005366      0.004181     -0.004778
      9.46319     -9.17742     22.84511         0.001681     -0.001583     -0.002811
      9.46220     -7.32905     19.77947         0.000682      0.001096     -0.000047
      9.47241     -9.14410     10.45203        -0.003761      0.000407      0.004483
     12.62773     -1.84751     19.78279         0.000454      0.002428      0.004883
      9.46180     -3.63372     22.87549         0.006375      0.011926      0.000950
      9.46893     -3.66572     10.45320         0.003966     -0.005249      0.000636
      9.46232     -1.84276     16.64328         0.005345     -0.000439     -0.000494
      9.43006     -3.71865     26.00303        -0.006337      0.002229     -0.000265
      9.47157     -3.66496     13.59186        -0.002313     -0.004093     -0.002744
      7.87885    -10.06825     19.77966         0.003976     -0.002585      0.002560
      7.88930    -11.88602     13.58666        -0.001688     -0.003300     -0.001292
      9.46088     -1.84631     19.78116        -0.004077     -0.000317     -0.003820
     11.03557      4.51969     22.83020         0.001260     -0.000195     -0.006578
      7.88808     -0.92336     13.59126        -0.000028     -0.001293      0.001055
     11.04429      6.37257     16.64122         0.003287     -0.004892     -0.001982
      6.28337      7.27222     22.84321        -0.005703      0.002885      0.003893
      7.88136     11.85406     19.78091        -0.000068     -0.005523      0.001443
      7.88876     10.03767     13.58741        -0.003836      0.002661      0.004637
      7.87929     10.01350     25.96453        -0.004349      0.002173      0.007011
      7.88013     11.85418     16.64208         0.002809     -0.003112      0.000520
      7.88807     10.03851     10.44933        -0.002344      0.008631      0.001072
      7.85567     10.01198     22.82887        -0.005527      0.005782     -0.005362
      3.13379     -1.85022     19.78018        -0.000620      0.000760      0.001584
      6.30725      7.29666     10.44910        -0.005609     -0.001919     -0.001649
      3.14031     -3.66469     13.58794        -0.001851     -0.006203     -0.000436
      3.13493     -1.84730     16.63990        -0.001324      0.000007      0.001689
      3.14262     -3.66529     10.44921        -0.004220     -0.000706     -0.003116
      3.10421     -3.69654     22.79580         0.002169     -0.003235     -0.001013
      4.71762      0.89398     19.78098         0.002308     -0.000958     -0.002741
      4.72378     -0.92438     13.58978         0.000014      0.000695     -0.001238
      4.75899     -1.00799     25.91348         0.003042     -0.006317     -0.000148
      4.71610      0.89274     16.64280        -0.002308     -0.001600     -0.003475
      4.72696     -0.92576     10.45209         0.000292     -0.003659     -0.007401
      3.12942     -3.69049     25.92917         0.001926     -0.015406     -0.003173
      6.29864      9.11425     16.64375         0.000491     -0.002723     -0.002269
      6.29164      7.27775     25.98018        -0.002668     -0.001161     -0.002012
      6.30710      7.29877     13.58747        -0.004320     -0.002062      0.002069
      1.55053      0.89187     19.78081         0.005139     -0.002449      0.003504
      1.56133     -0.92605     13.58705        -0.001339     -0.000420      0.002327
      1.56245     -0.96228     25.95721         0.000143      0.000859     -0.000736
      1.55074      0.89286     16.64274         0.002280      0.000768      0.002785
      1.56002     -0.92506     10.45110        -0.000379     -0.004125      0.002163
      1.53036     -0.94211     22.81615         0.003179     -0.000018      0.004787
      3.13455      3.63453     19.78063         0.000322     -0.000020     -0.000821
      3.14585      1.81688     13.58736         0.000987      0.000895     -0.001188
      3.12587      1.77324     25.98409        -0.000346     -0.003019      0.008283
      3.13425      3.63329     16.64251        -0.003088     -0.000017     -0.005810
      3.14468      1.81748     10.45033         0.000464     -0.003320     -0.002463
      3.14365      1.79146     22.85016         0.006806     -0.004059     -0.002102
      4.71674      6.37301     19.78107         0.007540      0.005696     -0.003030
      4.72593      4.55720     13.58826        -0.007232      0.004605      0.002564
      4.69977      4.53850     25.99586         0.001360     -0.010329      0.005829
      4.71723      6.37416     16.64193        -0.006485     -0.004361     -0.003726
      4.72577      4.55857     10.44978         0.000929      0.001038      0.001405
      4.71459      4.52479     22.85886        -0.005085     -0.001493     -0.001361
      6.29942      9.11179     19.78314        -0.002723     -0.003551     -0.000643
      4.67906     -0.91521     22.77593         0.000799     -0.001746     -0.004277
      6.30091      3.63254     19.78089        -0.000678     -0.002949      0.006160
      6.30821      1.81580     13.58824        -0.002575      0.004414      0.002208
      6.26006      1.80809     26.02910        -0.003703     -0.000068      0.002199
      6.25802     -3.69685     25.91580        -0.002557     -0.011643      0.003417
      6.29812     -1.84679     16.64207         0.002673     -0.003013      0.001265
      6.30652     -3.66534     10.45388         0.000492     -0.000664      0.001547
      6.27421     -3.77000     22.73758        -0.003403     -0.007943      0.000079
      7.87976      0.89295     19.78033         0.002040      0.003960     -0.003575
     14.21660     -0.92685     10.45182         0.010090      0.008182      0.004888
      7.88102      0.89305     16.64125         0.003253     -0.001050      0.002804
      7.88868     -0.92338     10.45345        -0.002188     -0.003068      0.004870
      7.90512     -0.91383     22.90490         0.015119     -0.001178     -0.001003
      9.46154      3.63099     19.78155         0.006621      0.003072     -0.000430
      9.47164      1.81607     13.58932        -0.000542      0.000707     -0.001952
      9.50413      1.87148     26.00358         0.007613      0.010570     -0.002656
      9.46305      3.63064     16.64064        -0.001995     -0.000510      0.001192
      9.47275      1.81487     10.45240         0.004506     -0.004004     -0.004438
      9.43501      1.76654     22.89957        -0.008326     -0.002975     -0.001724
     11.04482      6.37350     19.77797         0.000909     -0.002797     -0.005463
     11.05661      4.55389     13.59028        -0.000688     -0.002479      0.007232
     11.04927      4.55024     25.97143         0.000074     -0.004183      0.003883
      6.30377     -3.66635     13.59099        -0.000671     -0.002330     -0.006598
     11.05458      4.55525     10.45214         0.000141     -0.006134      0.002207
      6.29785     -1.84744     19.78126         0.002235      0.002475      0.001899
      4.72615     -6.40612     10.45284        -0.005016      0.002413     -0.005204
      6.29999      3.63256     16.63987        -0.003060     -0.001055      0.000566
      6.30992      1.81618     10.45040         0.001876     -0.003434      0.003359
      6.34110      1.76786     22.91219        -0.012452     -0.000628      0.004397
      7.87951      6.37321     19.78055         0.004363     -0.000615      0.004024
      7.88846      4.55806     13.59010        -0.001423     -0.002535     -0.001983
      7.87924      4.55150     25.99215        -0.003273     -0.003488     -0.000283
      7.87881      6.37462     16.64054        -0.002848     -0.000878      0.000796
      7.89058      4.55613     10.45185         0.000981      0.003998      0.007428
      7.85945      4.52687     22.84595         0.004836     -0.001398      0.007393
      9.46227      9.11440     19.77941         0.000111     -0.000244     -0.001151
      9.47043      7.29989     13.58899        -0.003502      0.000363     -0.002148
      9.46049      7.28094     25.96013         0.001530     -0.001828      0.000011
      9.46052      9.11608     16.63971        -0.000221     -0.001201     -0.000429
      9.47214      7.29649     10.45064         0.006621     -0.001260      0.003682
      9.44161      7.26256     22.82385        -0.000493      0.001966     -0.004464
      4.71427     -4.58777     19.77569         0.003515     -0.001672      0.006478
      4.72500     -6.40625     13.58893        -0.001516      0.001862      0.005880
      4.70957     -6.43208     25.94686        -0.006647     -0.000628      0.006230
      4.71803     -4.58673     16.63904        -0.000476      0.005109     -0.000663
      4.69950     -6.46548     22.80135        -0.005485      0.002314     -0.000715
     14.19553     -0.94949     22.83658        -0.009907      0.002823      0.013440
      8.04097     -0.69128     26.58250         0.009755      0.004767     -0.007525
      8.48371     -0.22015     28.26499         0.006136      0.001091     -0.007106
      9.66460      0.32905     28.78890         0.019326      0.009530     -0.009962
      7.69853     -0.64061     30.52978         0.011734      0.024875     -0.001647
      9.84274      0.38981     30.17124         0.000452      0.001819      0.011976
      8.87461     -0.09424     31.06396         0.013434      0.014859      0.009550
      7.50525     -0.71007     29.15445        -0.024142      0.004073      0.001764
      9.10769     -0.07092     32.54989        -0.008187      0.002081     -0.012571
     10.76797      0.81968     30.56582         0.014493     -0.000328     -0.003512
      6.92726     -1.03183     31.19934        -0.004471      0.018506      0.000413
      6.59559     -1.16706     28.75170         0.004846      0.023826      0.001950
     10.45631      0.69852     28.13842         0.000833     -0.004293      0.003970
      9.62930     -0.98801     32.87332         0.009178     -0.000277      0.004634
      9.73187      0.78402     32.84646         0.010009      0.007510      0.005358
      8.15929     -0.02123     33.10429         0.002565      0.005372     -0.001574
      7.69398     -1.96582     25.22205        -0.003228      0.002441      0.006781
 -----------------------------------------------------------------------------------
    total drift:                                0.064744      0.266881     -0.058639


--------------------------------------------------------------------------------------------------------



  FREE ENERGIE OF THE ION-ELECTRON SYSTEM (eV)
  ---------------------------------------------------
  free  energy   TOTEN  =     -1295.40787249 eV

  energy  without entropy=    -1295.40787249  energy(sigma->0) =    -1295.40787249
 


--------------------------------------------------------------------------------------------------------


    POTLOK:  cpu time     14.5280: real time     14.5563


--------------------------------------------------------------------------------------------------------


 stress matrix after NEB project (eV)
      3.52676      1.77565      0.96319
      1.77565      4.69944      1.28748
      0.96319      1.28748     -0.51661
  FORCES: max atom, RMS     0.028415    0.008603
  FORCE total and by dimension    0.133276    0.028009
  Stress total and by dimension    6.801921    4.699435


--------------------------------------------------------------------------------------------------------


  
 reached required accuracy - stopping structural energy minimisation
     LOOP+:  cpu time  27881.4508: real time  27942.9936
    4ORBIT:  cpu time      0.0000: real time      0.0000

 total amount of memory used by VASP MPI-rank0  1923362. kBytes
=======================================================================

   base      :      30000. kBytes
   nonlr-proj:      68844. kBytes
   fftplans  :      25218. kBytes
   grid      :     215175. kBytes
   one-center:       7464. kBytes
   wavefun   :    1576661. kBytes
 
  
  
 General timing and accounting informations for this job:
 ========================================================
  
                  Total CPU time used (sec):    28088.744
                            User time (sec):    28036.240
                          System time (sec):       52.504
                         Elapsed time (sec):    28150.904
  
                   Maximum memory used (kb):     2559108.
                   Average memory used (kb):          N/A
  
                          Minor page faults:     20218558
                          Major page faults:            0
                 Voluntary context switches:        12015
