 vasp.6.3.2 27Jun22 (build Jan 03 2024 23:05:41) complex                        
  
 executed on           IFC15_impi date 2024.07.15  00:09:53
 running 1024 mpi-ranks, with    1 threads/rank
 distrk:  each k-point on 1024 cores,    1 groups
 distr:  one band on NCORE=  16 cores,   64 groups


--------------------------------------------------------------------------------------------------------


 INCAR:
   ENCUT = 600.00
   EDIFF = 1.00e-06
   EDIFFG = -0.01
   IBRION = 2
   ALGO = Normal
   ISMEAR = 0
   SIGMA = 0.05
   LCHARG = .FALSE.
   LWAVE = .FALSE.
   LREAL = Auto
   NELM = 2000
   NSW = 5000
   NCORE = 16
   NKPAR = 8
   ISPIN = 2
   GGA = MK
   PARAM1 = 0.1234
   PARAM2 = 1.0
   AGGAC = 0.0
   LUSE_VDW = .TRUE.
   LASPH = .TRUE.
   LDIPOL = .TRUE.
   DIPOL = 0.5 0.5 0.5
   IDIPOL = 3

 POTCAR:    PAW_PBE Mo_sv 02Feb2006               
 POTCAR:    PAW_PBE S 06Sep2000                   
 -----------------------------------------------------------------------------
|                                                                             |
|           W    W    AA    RRRRR   N    N  II  N    N   GGGG   !!!           |
|           W    W   A  A   R    R  NN   N  II  NN   N  G    G  !!!           |
|           W    W  A    A  R    R  N N  N  II  N N  N  G       !!!           |
|           W WW W  AAAAAA  RRRRR   N  N N  II  N  N N  G  GGG   !            |
|           WW  WW  A    A  R   R   N   NN  II  N   NN  G    G                |
|           W    W  A    A  R    R  N    N  II  N    N   GGGG   !!!           |
|                                                                             |
|     You use a magnetic or noncollinear calculation, but did not specify     |
|     the initial magnetic moment with the MAGMOM tag. Note that a            |
|     default of 1 will be used for all atoms. This ferromagnetic setup       |
|     may break the symmetry of the crystal, in particular it may rule        |
|     out finding an antiferromagnetic solution. Thence, we recommend         |
|     setting the initial magnetic moment manually or verifying carefully     |
|     that this magnetic setup is desired.                                    |
|                                                                             |
 -----------------------------------------------------------------------------

 -----------------------------------------------------------------------------
|                                                                             |
|               ----> ADVICE to this user running VASP <----                  |
|                                                                             |
|     You have switched on vdW-DFT.                                           |
|     This routine was written and supplied by Jiri Klimes. We recommend      |
|     that you carefully read and cite the following publications:            |
|       J. Klimes, D.R. Bowler, A. Michelides                                 |
|          J. Phys.: Cond Matt. 22 022201 (2010)                              |
|       J. Klimes, D.R. Bowler, A. Michelides                                 |
|          Phys. Rev. B. 83, 195131 (2011)                                    |
|     and references therein.                                                 |
|                                                                             |
 -----------------------------------------------------------------------------

 POTCAR:    PAW_PBE Mo_sv 02Feb2006               
   SHA256 =  2731df97e41766cc617548c5a8267718fdef1f509ac6bafa01e745abea2bdfaa Mo_sv/POTCAR          
   COPYR  = (c) Copyright 02Feb2006 Georg Kresse                                                    
   COPYR  = This file is part of the software VASP. Any use, copying, and all other rights are regul
   COPYR  = If you do not have a valid VASP license, you may not use, copy or distribute this file. 
   VRHFIN =Mo: 4p5s4d                                                                               
   LEXCH  = PE                                                                                      
   EATOM  =  1862.2866 eV,  136.8742 Ry                                                             
                                                                                                    
   TITEL  = PAW_PBE Mo_sv 02Feb2006                                                                 
   LULTRA =        F    use ultrasoft PP ?                                                          
   IUNSCR =        1    unscreen: 0-lin 1-nonlin 2-no                                               
   RPACOR =    2.200    partial core radius                                                         
   POMASS =   95.940; ZVAL   =   14.000    mass and valenz                                          
   RCORE  =    2.500    outmost cutoff radius                                                       
   RWIGS  =    2.750; RWIGS  =    1.455    wigner-seitz radius (au A)                               
   ENMAX  =  242.676; ENMIN  =  182.007 eV                                                          
   ICORE  =        3    local potential                                                             
   LCOR   =        T    correct aug charges                                                         
   LPAW   =        T    paw PP                                                                      
   EAUG   =  446.014                                                                                
   DEXC   =    0.000                                                                                
   RMAX   =    2.563    core radius for proj-oper                                                   
   RAUG   =    1.300    factor for augmentation sphere                                              
   RDEP   =    2.641    radius for radial grids                                                     
   RDEPT  =    2.031    core radius for aug-charge                                                  
                                                                                                    
   Atomic configuration                                                                             
   11 entries                                                                                       
     n  l   j            E        occ.                                                              
     1  0  0.50    -19819.0341   2.0000                                                             
     2  0  0.50     -2799.0127   2.0000                                                             
     2  1  1.50     -2502.0276   6.0000                                                             
     3  0  0.50      -476.4449   2.0000                                                             
     3  1  1.50      -379.1496   6.0000                                                             
     3  2  2.50      -220.9367  10.0000                                                             
     4  0  0.50       -64.3378   2.0000                                                             
     5  0  0.50        -4.0862   1.0000                                                             
     4  1  1.50       -38.4773   6.0000                                                             
     4  2  2.50        -3.7535   5.0000                                                             
     4  3  2.50        -1.3606   0.0000                                                             
   Description                                                                                      
     l       E           TYP  RCUT    TYP  RCUT                                                     
     0    -64.3377829     23  2.100                                                                 
     0     -4.0861640     23  2.400                                                                 
     1    -38.4772993     23  2.100                                                                 
     1     13.6058260     23  2.100                                                                 
     2     -3.7534941     23  2.400                                                                 
     2     -5.1140767     23  2.400                                                                 
     3     -4.0817478     23  2.500                                                                 
  local pseudopotential read in
  partial core-charges read in
  partial kinetic energy density read in
  atomic valenz-charges read in
  non local Contribution for L=           0  read in
    real space projection operators read in
  non local Contribution for L=           0  read in
    real space projection operators read in
  non local Contribution for L=           1  read in
    real space projection operators read in
  non local Contribution for L=           1  read in
    real space projection operators read in
  non local Contribution for L=           2  read in
    real space projection operators read in
  non local Contribution for L=           2  read in
    real space projection operators read in
    PAW grid and wavefunctions read in
 
   number of l-projection  operators is LMAX  =           6
   number of lm-projection operators is LMMAX =          18
 
 POTCAR:    PAW_PBE S 06Sep2000                   
   SHA256 =  0fc7481fb0695f01bdc6462160264c5c84044ae9ec85a907d398b887a2bc3132 S/POTCAR              
   COPYR  = (c) Copyright 06Sep2000 Georg Kresse                                                    
   COPYR  = This file is part of the software VASP. Any use, copying, and all other rights are regul
   COPYR  = If you do not have a valid VASP license, you may not use, copy or distribute this file. 
   VRHFIN =S : s2p4                                                                                 
   LEXCH  = PE                                                                                      
   EATOM  =   276.8230 eV,   20.3459 Ry                                                             
                                                                                                    
   TITEL  = PAW_PBE S 06Sep2000                                                                     
   LULTRA =        F    use ultrasoft PP ?                                                          
   IUNSCR =        1    unscreen: 0-lin 1-nonlin 2-no                                               
   RPACOR =    1.500    partial core radius                                                         
   POMASS =   32.066; ZVAL   =    6.000    mass and valenz                                          
   RCORE  =    1.900    outmost cutoff radius                                                       
   RWIGS  =    2.200; RWIGS  =    1.164    wigner-seitz radius (au A)                               
   ENMAX  =  258.689; ENMIN  =  194.016 eV                                                          
   ICORE  =        2    local potential                                                             
   LCOR   =        T    correct aug charges                                                         
   LPAW   =        T    paw PP                                                                      
   EAUG   =  335.092                                                                                
   DEXC   =    0.000                                                                                
   RMAX   =    1.942    core radius for proj-oper                                                   
   RAUG   =    1.300    factor for augmentation sphere                                              
   RDEP   =    1.954    radius for radial grids                                                     
   RDEPT  =    1.744    core radius for aug-charge                                                  
                                                                                                    
   Atomic configuration                                                                             
    6 entries                                                                                       
     n  l   j            E        occ.                                                              
     1  0  0.50     -2405.8406   2.0000                                                             
     2  0  0.50      -211.7007   2.0000                                                             
     2  1  1.50      -156.4958   6.0000                                                             
     3  0  0.50       -17.2562   2.0000                                                             
     3  1  0.50        -7.0085   4.0000                                                             
     3  2  1.50        -6.8029   0.0000                                                             
   Description                                                                                      
     l       E           TYP  RCUT    TYP  RCUT                                                     
     0    -17.2561641     23  1.900                                                                 
     0    -15.8743224     23  1.900                                                                 
     1     -7.0085400     23  1.900                                                                 
     1     -2.7779785     23  1.900                                                                 
     2     -6.8029130     23  1.900                                                                 
  local pseudopotential read in
  partial core-charges read in
  partial kinetic energy density read in
  atomic valenz-charges read in
  non local Contribution for L=           0  read in
    real space projection operators read in
  non local Contribution for L=           0  read in
    real space projection operators read in
  non local Contribution for L=           1  read in
    real space projection operators read in
  non local Contribution for L=           1  read in
    real space projection operators read in
    PAW grid and wavefunctions read in
 
   number of l-projection  operators is LMAX  =           4
   number of lm-projection operators is LMMAX =           8
 
 Optimization of the real space projectors (new method)

 maximal supplied QI-value         = 15.12
 optimisation between [QCUT,QGAM] = [ 12.55, 25.10] = [ 44.09,176.36] Ry 
 Optimized for a Real-space Cutoff    1.47 Angstroem

   l    n(q)    QCUT    max X(q) W(low)/X(q) W(high)/X(q)  e(spline) 
   0     11    12.548     3.559    0.18E-04    0.60E-05    0.19E-06
   0     11    12.548    20.730    0.37E-04    0.13E-04    0.98E-07
   1     11    12.548     3.279    0.80E-06    0.70E-06    0.27E-07
   1     11    12.548     4.693    0.72E-04    0.11E-03    0.38E-06
   2     10    12.548    67.616    0.34E-03    0.45E-03    0.54E-06
   2     10    12.548    62.420    0.34E-03    0.45E-03    0.54E-06
 Optimization of the real space projectors (new method)

 maximal supplied QI-value         = 19.84
 optimisation between [QCUT,QGAM] = [ 12.50, 25.00] = [ 43.76,175.03] Ry 
 Optimized for a Real-space Cutoff    1.06 Angstroem

   l    n(q)    QCUT    max X(q) W(low)/X(q) W(high)/X(q)  e(spline) 
   0      8    12.501   187.594    0.26E-03    0.17E-03    0.97E-07
   0      8    12.501   164.243    0.26E-03    0.17E-03    0.96E-07
   1      7    12.501    67.533    0.50E-03    0.61E-03    0.91E-07
   1      7    12.501    50.729    0.48E-03    0.60E-03    0.90E-07
 -----------------------------------------------------------------------------
|                                                                             |
|               ----> ADVICE to this user running VASP <----                  |
|                                                                             |
|     You enforced a specific xc type in the INCAR file but a different       |
|     type was found in the POTCAR file.                                      |
|     I HOPE YOU KNOW WHAT YOU ARE DOING!                                     |
|                                                                             |
 -----------------------------------------------------------------------------

  PAW_PBE Mo_sv 02Feb2006               :
 energy of atom  1       EATOM=-1862.2866
 kinetic energy error for atom=    0.0041 (will be added to EATOM!!)
  PAW_PBE S 06Sep2000                   :
 energy of atom  2       EATOM= -276.8230
 kinetic energy error for atom=    0.0009 (will be added to EATOM!!)
 
 
 POSCAR: Mo  S
  positions in direct lattice
  velocities in cartesian coordinates
 exchange correlation table for  LEXCH =       43
   RHO(1)=    0.500       N(1)  =     2000
   RHO(2)=  100.500       N(2)  =     4000

 VTST: version 4.1, (05/19/21)

 CHAIN: initializing optimizer
 
 OPT: Using VASP Conjugate-Gradient optimizer
 CHAIN: Read ICHAIN            0
 
 POSCAR: Mo  S
  positions in direct lattice
  velocities in cartesian coordinates
 


--------------------------------------------------------------------------------------------------------


 ion  position               nearest neighbor table
   1  0.133  0.067  0.500- 144 2.41 141 2.41 162 2.41 138 2.41 159 2.41 147 2.41  49 3.16  62 3.16
                            71 3.16  20 3.16  67 3.16  72 3.16
   2  0.665  0.731  0.669- 193 2.39 117 2.39 196 2.41 114 2.41 108 2.41 106 2.42  37 3.14  42 3.14
                            55 3.16  32 3.16   8 3.19  64 3.19
   3  0.267  0.934  0.671- 149 2.41 140 2.41 215 2.41 218 2.41 143 2.41 155 2.41  74 3.17  28 3.17
                             9 3.17  51 3.17  50 3.17  25 3.17
   4  0.267  0.933  0.330- 148 2.41 217 2.41 142 2.41 146 2.41 214 2.41 139 2.41  10 3.16  52 3.16
                            75 3.16  29 3.16  70 3.16  24 3.16
   5  0.333  0.867  0.500- 197 2.41 216 2.41 210 2.41 136 2.41 213 2.41 207 2.41  72 3.16  53 3.16
                            71 3.16  12 3.16  30 3.16  23 3.16
   6  0.733  0.867  0.500-  76 2.41 100 2.41 119 2.41 110 2.41  89 2.41 116 2.41  34 3.16  46 3.16
                            30 3.16  67 3.16  22 3.16  49 3.16
   7  0.667  0.933  0.330-  94 2.41 201 2.41 105 2.41 198 2.41 107 2.41  97 2.41  11 3.16  29 3.16
                            33 3.16  26 3.16  16 3.16  63 3.16
   8  0.666  0.933  0.670- 134 2.41 199 2.41 106 2.41 108 2.41  96 2.41  93 2.41  28 3.16  64 3.16
                            32 3.17  17 3.17  27 3.18   2 3.19
   9  0.267  0.733  0.671- 212 2.41 157 2.41 215 2.41 137 2.41 218 2.41 209 2.41  56 3.17  28 3.17
                            51 3.17   3 3.17  32 3.17  13 3.17
  10  0.267  0.733  0.330- 211 2.41 145 2.41 217 2.41 208 2.41 214 2.41 158 2.41   4 3.16  52 3.16
                            29 3.16  57 3.16  33 3.16  14 3.16
  11  0.667  0.733  0.330- 195 2.41 115 2.41 105 2.41 107 2.41 192 2.41 118 2.41   7 3.16  63 3.16
                            38 3.16  41 3.16  33 3.16  69 3.16
  12  0.333  0.667  0.500- 210 2.41 191 2.41 179 2.41 204 2.41 194 2.41 207 2.41   5 3.16  53 3.16
                            30 3.16  59 3.16  34 3.16  15 3.16
  13  0.268  0.533  0.670- 212 2.40 209 2.41 173 2.41 176 2.41 206 2.42 181 2.43  32 3.15  18 3.16
                            60 3.17   9 3.17  56 3.18  37 3.20
  14  0.267  0.533  0.330- 211 2.41 205 2.41 175 2.41 172 2.41 180 2.41 208 2.41  33 3.16  10 3.16
                            38 3.16  57 3.16  61 3.16  19 3.16
  15  0.333  0.467  0.500- 186 2.41 153 2.41 179 2.41 204 2.41 188 2.41 150 2.41  20 3.16  62 3.16
                            39 3.16  59 3.16  34 3.16  12 3.16
  16  0.867  0.133  0.330-  90 2.41  94 2.41 124 2.41 132 2.41 102 2.41  97 2.41  26 3.16  66 3.16
                            63 3.16  47 3.16   7 3.16  61 3.16
  17  0.867  0.133  0.670- 104 2.41  96 2.41  88 2.41  91 2.41  93 2.41 122 2.41  65 3.17  60 3.17
                            27 3.17  64 3.17  48 3.17   8 3.17
  18  0.269  0.335  0.669- 152 2.39 181 2.39 178 2.41 206 2.41 170 2.41 167 2.42  43 3.14  37 3.14
                            50 3.16  13 3.16  65 3.19  60 3.19
  19  0.267  0.333  0.330- 205 2.41 154 2.41 169 2.41 166 2.41 180 2.41 151 2.41  61 3.16  66 3.16
                            38 3.16  44 3.16  14 3.16  70 3.16
  20  0.333  0.267  0.500- 202 2.41 153 2.41 144 2.41 147 2.41 183 2.41 150 2.41  15 3.16  62 3.16
                            39 3.16   1 3.16  45 3.16  71 3.16
  21  0.933  0.267  0.500-  80 2.41 123 2.41 165 2.41 131 2.41  81 2.41 168 2.41  59 3.16  73 3.16
                            62 3.16  31 3.16  49 3.17  22 3.17
  22  0.733  0.067  0.500-  80 2.41 101 2.41 110 2.41 131 2.41  95 2.41  76 2.41  23 3.16  30 3.16
                            31 3.16   6 3.16  21 3.17  49 3.17
  23  0.533  0.067  0.500- 219 2.41 136 2.41  95 2.41 197 2.41 101 2.41 222 2.41  22 3.16  31 3.16
                            71 3.16  45 3.16  30 3.16   5 3.16
  24  0.467  0.133  0.330- 148 2.41 184 2.41 203 2.41 220 2.41 200 2.41 146 2.41  70 3.16   4 3.16
                            44 3.16  29 3.16  26 3.16  35 3.16
  25  0.467  0.134  0.670- 149 2.40 155 2.41 221 2.41 223 2.41 185 2.42 182 2.43  50 3.15  36 3.16
                            27 3.17   3 3.17  28 3.18  43 3.20
  26  0.667  0.133  0.330-  94 2.41 203 2.41  84 2.41 220 2.41  78 2.41  97 2.41  35 3.16  29 3.16
                            24 3.16   7 3.16  16 3.16  47 3.16
  27  0.666  0.134  0.670- 223 2.41 221 2.41  79 2.41  85 2.41  96 2.41  93 2.41  28 3.16  48 3.16
                            25 3.17  17 3.17   8 3.18  36 3.19
  28  0.467  0.933  0.671- 215 2.41 218 2.41 134 2.41 223 2.41 199 2.41 221 2.41   8 3.16  27 3.16
                             9 3.17   3 3.17  32 3.18  25 3.18
  29  0.467  0.933  0.330- 201 2.41 203 2.41 217 2.41 214 2.41 198 2.41 220 2.41  10 3.16   4 3.16
                             7 3.16  26 3.16  33 3.16  24 3.16
  30  0.533  0.867  0.500- 191 2.41 136 2.41  76 2.41 197 2.41 110 2.41 194 2.41  22 3.16   6 3.16
                            12 3.16  34 3.16  23 3.16   5 3.16
  31  0.733  0.267  0.500-  81 2.41  95 2.41  77 2.41 123 2.41 101 2.41  87 2.41  40 3.16  45 3.16
                            23 3.16  73 3.16  22 3.16  21 3.16
  32  0.467  0.732  0.670- 212 2.40 209 2.41 199 2.41 134 2.41 196 2.42 193 2.43  13 3.15   2 3.16
                             8 3.17   9 3.17  28 3.18  37 3.20
  33  0.467  0.733  0.330- 211 2.41 195 2.41 201 2.41 198 2.41 192 2.41 208 2.41  14 3.16  10 3.16
                            38 3.16  29 3.16   7 3.16  11 3.16
  34  0.533  0.667  0.500- 186 2.41 116 2.41 191 2.41 194 2.41 188 2.41 119 2.41  46 3.16   6 3.16
                            39 3.16  30 3.16  15 3.16  12 3.16
  35  0.667  0.333  0.330- 184 2.41 127 2.41  84 2.41  78 2.41 200 2.41 130 2.41  26 3.16  47 3.16
                            44 3.16  41 3.16  24 3.16  68 3.16
  36  0.665  0.335  0.669- 129 2.39 182 2.39 185 2.41 126 2.41  85 2.41  79 2.42  43 3.14  42 3.14
                            25 3.16  58 3.16  48 3.19  27 3.19
  37  0.469  0.531  0.668- 190 2.37 196 2.39 206 2.39 181 2.40 193 2.40  42 3.06  43 3.06  18 3.14
                             2 3.14  13 3.20  32 3.20
  38  0.467  0.533  0.330- 195 2.41 205 2.41 189 2.41 135 2.41 180 2.41 192 2.41  41 3.16  44 3.16
                            11 3.16  19 3.16  14 3.16  33 3.16
  39  0.533  0.467  0.500- 186 2.41 133 2.41 202 2.41 188 2.41 183 2.41 128 2.41  15 3.16  34 3.16
                            20 3.16  46 3.16  45 3.16  40 3.16
  40  0.733  0.467  0.500- 133 2.41  87 2.41 109 2.41 113 2.41 128 2.41  77 2.41  45 3.16  31 3.16
                            39 3.16  73 3.16  46 3.16  54 3.16
  41  0.667  0.533  0.330- 127 2.41 115 2.41 189 2.41 135 2.41 130 2.41 118 2.41  38 3.16  44 3.16
                            35 3.16  11 3.16  68 3.16  69 3.16
  42  0.662  0.531  0.668- 190 2.37 126 2.39 114 2.39 129 2.40 117 2.40  37 3.06  43 3.06  36 3.14
                             2 3.14  58 3.20  55 3.20
  43  0.469  0.338  0.668- 190 2.37 185 2.39 178 2.39 182 2.40 152 2.40  37 3.06  42 3.06  36 3.14
                            18 3.14  25 3.20  50 3.20
  44  0.467  0.333  0.330- 184 2.41 154 2.41 189 2.41 135 2.41 200 2.41 151 2.41  38 3.16  41 3.16
                            35 3.16  19 3.16  24 3.16  70 3.16
  45  0.533  0.267  0.500- 202 2.41  87 2.41 219 2.41 222 2.41 183 2.41  77 2.41  40 3.16  31 3.16
                            39 3.16  23 3.16  20 3.16  71 3.16
  46  0.733  0.667  0.500- 133 2.41 116 2.41 125 2.41  86 2.41 128 2.41 119 2.41  34 3.16   6 3.16
                            39 3.16  67 3.16  40 3.16  54 3.16
  47  0.867  0.333  0.330- 124 2.41 120 2.41  84 2.41 111 2.41  78 2.41 102 2.41  35 3.16  57 3.16
                            68 3.16  61 3.16  16 3.16  26 3.16
  48  0.866  0.334  0.670- 121 2.41 112 2.41  79 2.41  85 2.41  88 2.41 122 2.41  56 3.16  27 3.16
                            58 3.17  17 3.17  60 3.18  36 3.19
  49  0.933  0.067  0.500-  80 2.41 159 2.41  89 2.41 131 2.41 162 2.41 100 2.41   1 3.16  67 3.16
                            62 3.16   6 3.16  21 3.17  22 3.17
  50  0.268  0.134  0.670- 149 2.40 155 2.41 161 2.41 164 2.41 178 2.42 152 2.43  25 3.15  18 3.16
                            65 3.17   3 3.17  74 3.18  43 3.20
  51  0.066  0.733  0.671-  82 2.41 140 2.41 157 2.41 137 2.41 143 2.41  92 2.41  74 3.17  56 3.17
                             9 3.17   3 3.17  55 3.17  58 3.17
  52  0.067  0.733  0.330-  83 2.41 145 2.41 142 2.41 103 2.41 158 2.41 139 2.41  10 3.16   4 3.16
                            75 3.16  57 3.16  69 3.16  68 3.16
  53  0.133  0.667  0.500- 171 2.41 156 2.41 210 2.41 174 2.41 177 2.41 207 2.41  72 3.16   5 3.16
                            54 3.16  12 3.16  59 3.16  73 3.16
  54  0.933  0.667  0.500- 156 2.41 109 2.41 125 2.41 113 2.41  86 2.41 177 2.41  53 3.16  72 3.16
                            73 3.16  67 3.16  40 3.16  46 3.16
  55  0.866  0.732  0.670-  82 2.40  92 2.41  99 2.41 224 2.41 114 2.42 117 2.43  58 3.15   2 3.16
                            64 3.17  51 3.17  74 3.18  42 3.20
  56  0.067  0.533  0.671- 157 2.41 137 2.41 176 2.41 121 2.41 173 2.41 112 2.41  60 3.16  48 3.16
                             9 3.17  51 3.17  13 3.18  58 3.18
  57  0.067  0.533  0.330- 175 2.41 120 2.41 145 2.41 158 2.41 172 2.41 111 2.41  10 3.16  52 3.16
                            61 3.16  47 3.16  14 3.16  68 3.16
  58  0.866  0.533  0.670-  82 2.40  92 2.41 112 2.41 121 2.41 126 2.42 129 2.43  55 3.15  36 3.16
                            48 3.17  51 3.17  56 3.18  42 3.20
  59  0.133  0.467  0.500- 179 2.41 174 2.41 168 2.41 171 2.41 165 2.41 204 2.41  21 3.16  62 3.16
                            12 3.16  15 3.16  73 3.16  53 3.16
  60  0.067  0.334  0.670- 176 2.41 173 2.41 167 2.41 170 2.41  88 2.41 122 2.41  56 3.16  65 3.16
                            13 3.17  17 3.17  48 3.18  18 3.19
  61  0.067  0.333  0.330- 124 2.41 175 2.41 169 2.41 172 2.41 166 2.41 102 2.41  19 3.16  57 3.16
                            14 3.16  47 3.16  16 3.16  66 3.16
  62  0.133  0.267  0.500- 168 2.41 162 2.41 150 2.41 165 2.41 159 2.41 153 2.41  15 3.16  20 3.16
                             1 3.16  59 3.16  21 3.16  49 3.16
  63  0.867  0.933  0.330-  90 2.41 187 2.41 105 2.41  98 2.41 107 2.41 132 2.41  11 3.16  75 3.16
                            69 3.16  66 3.16  16 3.16   7 3.16
  64  0.866  0.933  0.670- 224 2.41  99 2.41 106 2.41 108 2.41 104 2.41  91 2.41  74 3.16   8 3.16
                            55 3.17  17 3.17  65 3.18   2 3.19
  65  0.067  0.134  0.670- 164 2.41 161 2.41 167 2.41 170 2.41 104 2.41  91 2.41  74 3.16  60 3.16
                            50 3.17  17 3.17  64 3.18  18 3.19
  66  0.067  0.133  0.330-  90 2.41 163 2.41 169 2.41 160 2.41 166 2.41 132 2.41  19 3.16  75 3.16
                            70 3.16  63 3.16  16 3.16  61 3.16
  67  0.933  0.867  0.500- 125 2.41 141 2.41 100 2.41 138 2.41  89 2.41  86 2.41  49 3.16   6 3.16
                            54 3.16  46 3.16   1 3.16  72 3.16
  68  0.867  0.533  0.330-  83 2.41 127 2.41 120 2.41 111 2.41 130 2.41 103 2.41  69 3.16  52 3.16
                            41 3.16  57 3.16  47 3.16  35 3.16
  69  0.867  0.733  0.330-  83 2.41 115 2.41 187 2.41  98 2.41 118 2.41 103 2.41  68 3.16  52 3.16
                            41 3.16  75 3.16  63 3.16  11 3.16
  70  0.267  0.133  0.330- 148 2.41 154 2.41 163 2.41 160 2.41 151 2.41 146 2.41  24 3.16   4 3.16
                            44 3.16  75 3.16  66 3.16  19 3.16
  71  0.333  0.067  0.500- 216 2.41 219 2.41 144 2.41 222 2.41 147 2.41 213 2.41   5 3.16  72 3.16
                            23 3.16   1 3.16  45 3.16  20 3.16
  72  0.133  0.867  0.500- 138 2.41 156 2.41 216 2.41 141 2.41 213 2.41 177 2.41   5 3.16  53 3.16
                            54 3.16  71 3.16  67 3.16   1 3.16
  73  0.933  0.467  0.500- 109 2.41 174 2.41  81 2.41 171 2.41 123 2.41 113 2.41  21 3.16  31 3.16
                            54 3.16  40 3.16  59 3.16  53 3.16
  74  0.067  0.933  0.671- 140 2.41 143 2.41 164 2.41 224 2.41 161 2.41  99 2.41  64 3.16  65 3.16
                             3 3.17  51 3.17  50 3.18  55 3.18
  75  0.067  0.933  0.330- 187 2.41 163 2.41 142 2.41 139 2.41  98 2.41 160 2.41   4 3.16  52 3.16
                            63 3.16  66 3.16  69 3.16  70 3.16
  76  0.667  0.933  0.457-  30 2.41  22 2.41   6 2.41
  77  0.667  0.333  0.543-  31 2.41  40 2.41  45 2.41
  78  0.733  0.267  0.373-  35 2.41  47 2.41  26 2.41
  79  0.732  0.268  0.713-  27 2.41  48 2.41  36 2.42
  80  0.867  0.133  0.457-  49 2.41  22 2.41  21 2.41
  81  0.867  0.333  0.457-  73 2.41  21 2.41  31 2.41
  82  0.934  0.667  0.627-  55 2.40  58 2.40  51 2.41
  83  0.933  0.667  0.287-  52 2.41  69 2.41  68 2.41
  84  0.733  0.267  0.287-  35 2.41  47 2.41  26 2.41
  85  0.733  0.267  0.627-  48 2.41  27 2.41  36 2.41
  86  0.867  0.733  0.457-  46 2.41  54 2.41  67 2.41
  87  0.667  0.333  0.457-  40 2.41  45 2.41  31 2.41
  88  0.933  0.267  0.713-  17 2.41  48 2.41  60 2.41
  89  0.867  0.933  0.543-  49 2.41  67 2.41   6 2.41
  90  0.933  0.067  0.287-  66 2.41  63 2.41  16 2.41
  91  0.934  0.066  0.627-  17 2.41  65 2.41  64 2.41
  92  0.932  0.666  0.714-  58 2.41  55 2.41  51 2.41
  93  0.733  0.066  0.627-  17 2.41  27 2.41   8 2.41
  94  0.733  0.067  0.287-  26 2.41   7 2.41  16 2.41
  95  0.667  0.133  0.457-  23 2.41  22 2.41  31 2.41
  96  0.733  0.067  0.713-  17 2.41  27 2.41   8 2.41
  97  0.733  0.067  0.373-  26 2.41   7 2.41  16 2.41
  98  0.933  0.867  0.373-  69 2.41  75 2.41  63 2.41
  99  0.932  0.866  0.713-  64 2.41  55 2.41  74 2.41
 100  0.867  0.933  0.457-  67 2.41  49 2.41   6 2.41
 101  0.667  0.133  0.543-  22 2.41  23 2.41  31 2.41
 102  0.933  0.267  0.373-  47 2.41  61 2.41  16 2.41
 103  0.934  0.667  0.373-  52 2.41  68 2.41  69 2.41
 104  0.933  0.067  0.713-  17 2.41  65 2.41  64 2.41
 105  0.733  0.867  0.287-  11 2.41   7 2.41  63 2.41
 106  0.732  0.864  0.713-   8 2.41  64 2.41   2 2.42
 107  0.733  0.867  0.373-  11 2.41   7 2.41  63 2.41
 108  0.733  0.866  0.627-   8 2.41  64 2.41   2 2.41
 109  0.867  0.533  0.543-  54 2.41  73 2.41  40 2.41
 110  0.667  0.933  0.543-  22 2.41  30 2.41   6 2.41
 111  0.933  0.467  0.373-  68 2.41  57 2.41  47 2.41
 112  0.932  0.466  0.713-  48 2.41  58 2.41  56 2.41
 113  0.867  0.533  0.457-  40 2.41  54 2.41  73 2.41
 114  0.733  0.665  0.626-  42 2.39   2 2.41  55 2.42
 115  0.733  0.667  0.287-  11 2.41  41 2.41  69 2.41
 116  0.667  0.733  0.457-  34 2.41  46 2.41   6 2.41
 117  0.728  0.661  0.712-   2 2.39  42 2.40  55 2.43
 118  0.733  0.667  0.373-  11 2.41  41 2.41  69 2.41
 119  0.667  0.733  0.543-   6 2.41  34 2.41  46 2.41
 120  0.933  0.467  0.287-  57 2.41  47 2.41  68 2.41
 121  0.933  0.467  0.627-  48 2.41  56 2.41  58 2.41
 122  0.934  0.267  0.627-  17 2.41  48 2.41  60 2.41
 123  0.867  0.333  0.543-  21 2.41  73 2.41  31 2.41
 124  0.933  0.267  0.287-  47 2.41  61 2.41  16 2.41
 125  0.867  0.733  0.543-  54 2.41  67 2.41  46 2.41
 126  0.733  0.468  0.626-  42 2.39  36 2.41  58 2.42
 127  0.733  0.467  0.287-  35 2.41  41 2.41  68 2.41
 128  0.667  0.533  0.457-  39 2.41  40 2.41  46 2.41
 129  0.728  0.466  0.712-  36 2.39  42 2.40  58 2.43
 130  0.733  0.467  0.373-  35 2.41  41 2.41  68 2.41
 131  0.867  0.133  0.543-  49 2.41  22 2.41  21 2.41
 132  0.933  0.067  0.373-  63 2.41  66 2.41  16 2.41
 133  0.667  0.533  0.543-  40 2.41  46 2.41  39 2.41
 134  0.533  0.866  0.627-   8 2.41  28 2.41  32 2.41
 135  0.533  0.467  0.373-  38 2.41  41 2.41  44 2.41
 136  0.467  0.933  0.457-  30 2.41  23 2.41   5 2.41
 137  0.133  0.667  0.628-  56 2.41  51 2.41   9 2.41
 138  0.067  0.933  0.543-  72 2.41  67 2.41   1 2.41
 139  0.133  0.867  0.373-   4 2.41  52 2.41  75 2.41
 140  0.133  0.867  0.714-  74 2.41  51 2.41   3 2.41
 141  0.067  0.933  0.457-   1 2.41  67 2.41  72 2.41
 142  0.133  0.867  0.287-   4 2.41  52 2.41  75 2.41
 143  0.133  0.867  0.628-  74 2.41   3 2.41  51 2.41
 144  0.267  0.133  0.543-  71 2.41   1 2.41  20 2.41
 145  0.133  0.667  0.287-  52 2.41  10 2.41  57 2.41
 146  0.333  0.066  0.373-   4 2.41  24 2.41  70 2.41
 147  0.267  0.133  0.457-  20 2.41  71 2.41   1 2.41
 148  0.333  0.067  0.287-   4 2.41  70 2.41  24 2.41
 149  0.333  0.066  0.627-  50 2.40  25 2.40   3 2.41
 150  0.267  0.333  0.543-  62 2.41  15 2.41  20 2.41
 151  0.333  0.267  0.373-  19 2.41  44 2.41  70 2.41
 152  0.339  0.272  0.712-  18 2.39  43 2.40  50 2.43
 153  0.267  0.333  0.457-  15 2.41  20 2.41  62 2.41
 154  0.333  0.267  0.287-  19 2.41  44 2.41  70 2.41
 155  0.334  0.068  0.714-  25 2.41  50 2.41   3 2.41
 156  0.067  0.733  0.457-  54 2.41  53 2.41  72 2.41
 157  0.133  0.666  0.714-  56 2.41   9 2.41  51 2.41
 158  0.133  0.667  0.373-  52 2.41  10 2.41  57 2.41
 159  0.067  0.133  0.543-  49 2.41   1 2.41  62 2.41
 160  0.133  0.067  0.373-  70 2.41  75 2.41  66 2.41
 161  0.134  0.068  0.713-  65 2.41  50 2.41  74 2.41
 162  0.067  0.133  0.457-   1 2.41  49 2.41  62 2.41
 163  0.133  0.067  0.287-  75 2.41  66 2.41  70 2.41
 164  0.134  0.067  0.627-  65 2.41  74 2.41  50 2.41
 165  0.067  0.333  0.543-  21 2.41  59 2.41  62 2.41
 166  0.133  0.267  0.373-  19 2.41  61 2.41  66 2.41
 167  0.136  0.268  0.713-  65 2.41  60 2.41  18 2.42
 168  0.067  0.333  0.457-  59 2.41  21 2.41  62 2.41
 169  0.133  0.267  0.287-  19 2.41  61 2.41  66 2.41
 170  0.134  0.267  0.627-  65 2.41  60 2.41  18 2.41
 171  0.067  0.533  0.543-  53 2.41  59 2.41  73 2.41
 172  0.133  0.467  0.373-  14 2.41  57 2.41  61 2.41
 173  0.134  0.466  0.713-  60 2.41  13 2.41  56 2.41
 174  0.067  0.533  0.457-  59 2.41  73 2.41  53 2.41
 175  0.133  0.467  0.287-  57 2.41  61 2.41  14 2.41
 176  0.134  0.467  0.627-  60 2.41  56 2.41  13 2.41
 177  0.067  0.733  0.543-  54 2.41  53 2.41  72 2.41
 178  0.335  0.267  0.626-  43 2.39  18 2.41  50 2.42
 179  0.267  0.533  0.543-  12 2.41  59 2.41  15 2.41
 180  0.333  0.467  0.373-  19 2.41  38 2.41  14 2.41
 181  0.339  0.466  0.712-  18 2.39  37 2.40  13 2.43
 182  0.534  0.272  0.712-  36 2.39  43 2.40  25 2.43
 183  0.467  0.333  0.457-  39 2.41  45 2.41  20 2.41
 184  0.533  0.267  0.287-  35 2.41  44 2.41  24 2.41
 185  0.532  0.267  0.626-  43 2.39  36 2.41  25 2.42
 186  0.467  0.533  0.543-  15 2.41  34 2.41  39 2.41
 187  0.933  0.867  0.287-  75 2.41  63 2.41  69 2.41
 188  0.467  0.533  0.457-  39 2.41  15 2.41  34 2.41
 189  0.533  0.467  0.287-  38 2.41  41 2.41  44 2.41
 190  0.533  0.467  0.625-  37 2.37  42 2.37  43 2.37
 191  0.467  0.733  0.543-  12 2.41  30 2.41  34 2.41
 192  0.533  0.667  0.373-  11 2.41  38 2.41  33 2.41
 193  0.534  0.661  0.712-   2 2.39  37 2.40  32 2.43
 194  0.467  0.733  0.457-  34 2.41  12 2.41  30 2.41
 195  0.533  0.667  0.287-  11 2.41  38 2.41  33 2.41
 196  0.532  0.665  0.626-  37 2.39   2 2.41  32 2.42
 197  0.467  0.933  0.543-   5 2.41  30 2.41  23 2.41
 198  0.533  0.867  0.373-  33 2.41  29 2.41   7 2.41
 199  0.534  0.866  0.713-   8 2.41  32 2.41  28 2.41
 200  0.533  0.267  0.373-  35 2.41  44 2.41  24 2.41
 201  0.533  0.867  0.287-  29 2.41   7 2.41  33 2.41
 202  0.467  0.333  0.543-  45 2.41  20 2.41  39 2.41
 203  0.533  0.067  0.287-  29 2.41  26 2.41  24 2.41
 204  0.267  0.533  0.457-  15 2.41  12 2.41  59 2.41
 205  0.333  0.467  0.287-  19 2.41  38 2.41  14 2.41
 206  0.335  0.468  0.626-  37 2.39  18 2.41  13 2.42
 207  0.267  0.733  0.543-  12 2.41  53 2.41   5 2.41
 208  0.333  0.667  0.373-  10 2.41  33 2.41  14 2.41
 209  0.334  0.666  0.714-  13 2.41  32 2.41   9 2.41
 210  0.267  0.733  0.457-  12 2.41  53 2.41   5 2.41
 211  0.333  0.667  0.287-  10 2.41  33 2.41  14 2.41
 212  0.333  0.667  0.627-  32 2.40  13 2.40   9 2.41
 213  0.267  0.933  0.543-  71 2.41   5 2.41  72 2.41
 214  0.333  0.867  0.373-   4 2.41  10 2.41  29 2.41
 215  0.334  0.867  0.714-  28 2.41   9 2.41   3 2.41
 216  0.267  0.933  0.457-  71 2.41   5 2.41  72 2.41
 217  0.333  0.867  0.287-   4 2.41  10 2.41  29 2.41
 218  0.333  0.867  0.628-  28 2.41   3 2.41   9 2.41
 219  0.467  0.133  0.543-  71 2.41  23 2.41  45 2.41
 220  0.533  0.067  0.373-  24 2.41  29 2.41  26 2.41
 221  0.534  0.068  0.713-  27 2.41  25 2.41  28 2.41
 222  0.467  0.133  0.457-  45 2.41  71 2.41  23 2.41
 223  0.533  0.067  0.627-  27 2.41  28 2.41  25 2.41
 224  0.933  0.866  0.627-  64 2.41  74 2.41  55 2.41
 
  LATTYP: Found a hexagonal cell.
 ALAT       =    15.8227970706
 C/A-ratio  =     2.3015724012
  
  Lattice vectors:
  
 A1 = (   7.9113985353, -13.7029442220,   0.0000000000)
 A2 = (   7.9113985353,  13.7029442220,   0.0000000000)
 A3 = (   0.0000000000,   0.0000000000,  36.4173130480)


Analysis of symmetry for initial positions (statically):
=====================================================================
 Subroutine PRICEL returns:
 Original cell was already a primitive cell.
 

 Routine SETGRP: Setting up the symmetry group for a 
 hexagonal supercell.


 Subroutine GETGRP returns: Found  6 space group operations
 (whereof  2 operations were pure point group operations)
 out of a pool of 24 trial point group operations.


The static configuration has the point symmetry C_1h.
 The point group associated with its full space group is C_3v.


Analysis of symmetry for dynamics (positions and initial velocities):
=====================================================================
 Subroutine PRICEL returns:
 Original cell was already a primitive cell.
 

 Routine SETGRP: Setting up the symmetry group for a 
 hexagonal supercell.


 Subroutine GETGRP returns: Found  6 space group operations
 (whereof  2 operations were pure point group operations)
 out of a pool of 24 trial point group operations.


The dynamic configuration has the point symmetry C_1h.
 The point group associated with its full space group is C_3v.


Analysis of structural, dynamic, and magnetic symmetry:
=====================================================================
 Subroutine PRICEL returns:
 Original cell was already a primitive cell.
 

 Routine SETGRP: Setting up the symmetry group for a 
 hexagonal supercell.


 Subroutine GETGRP returns: Found  6 space group operations
 (whereof  2 operations were pure point group operations)
 out of a pool of 24 trial point group operations.


The overall configuration has the point symmetry C_1h.
 The point group associated with its full space group is C_3v.


 Subroutine INISYM returns: Found  6 space group operations
 (whereof  2 operations are pure point group operations),
 and found     1 'primitive' translations


----------------------------------------------------------------------------------------

                                     Primitive cell                                     

  volume of cell :    7895.9620

  direct lattice vectors                    reciprocal lattice vectors
     7.911398535-13.702944222  0.000000000     0.063199951 -0.036488509  0.000000000
     7.911398535 13.702944222  0.000000000     0.063199951  0.036488509  0.000000000
     0.000000000  0.000000000 36.417313048     0.000000000  0.000000000  0.027459467

  length of vectors
    15.822797071 15.822797071 36.417313048     0.072977017  0.072977017  0.027459467

  position of ions in fractional coordinates (direct lattice)
     0.133334122  0.066677309  0.499962163
     0.665436378  0.730872757  0.669343380
     0.266759077  0.933518154  0.670652393
     0.266657334  0.933314669  0.329955687
     0.333318890  0.866659445  0.499985805
     0.733326910  0.866653819  0.499982731
     0.666646199  0.933315165  0.330063560
     0.666390263  0.932798239  0.670175403
     0.266759077  0.733240923  0.670652393
     0.266657334  0.733342666  0.329955687
     0.666664769  0.733329539  0.330057763
     0.333334884  0.666665116  0.499937323
     0.267813375  0.533350593  0.670252731
     0.266686717  0.533364617  0.330026023
     0.333337264  0.466642865  0.499929648
     0.866666667  0.133333333  0.330128655
     0.866666667  0.133333333  0.670037578
     0.269127243  0.334563622  0.669343380
     0.266670461  0.333335231  0.330057763
     0.333337264  0.266694399  0.499929648
     0.933349636  0.266699271  0.499995155
     0.733300729  0.066650364  0.499995155
     0.533343188  0.066677309  0.499962163
     0.466635383  0.133322099  0.330026023
     0.466649407  0.134462782  0.670252731
     0.666646199  0.133331034  0.330063560
     0.666390263  0.133592024  0.670175403
     0.466792588  0.933396294  0.670566112
     0.466647242  0.933323621  0.329984842
     0.533343188  0.866665878  0.499962163
     0.733326910  0.266673090  0.499982731
     0.466649407  0.732186625  0.670252731
     0.466635383  0.733313283  0.330026023
     0.533357135  0.666662736  0.499929648
     0.666664769  0.333335231  0.330057763
     0.665436378  0.334563622  0.669343380
     0.468816194  0.531183806  0.668277353
     0.466672339  0.533327661  0.330044577
     0.533333333  0.466666667  0.499903896
     0.733305601  0.466642865  0.499929648
     0.666655323  0.533327661  0.330044577
     0.662367613  0.531183806  0.668277353
     0.468816194  0.337632387  0.668277353
     0.466672339  0.333344677  0.330044577
     0.533357135  0.266694399  0.499929648
     0.733305601  0.666662736  0.499929648
     0.866668966  0.333353801  0.330063560
     0.866407976  0.333609737  0.670175403
     0.933349636  0.066650364  0.499995155
     0.267813375  0.134462782  0.670252731
     0.066481846  0.733240923  0.670652393
     0.066685331  0.733342666  0.329955687
     0.133340555  0.666681110  0.499985805
     0.933330231  0.666665116  0.499937323
     0.865537218  0.732186625  0.670252731
     0.066603706  0.533207412  0.670566112
     0.066676379  0.533352758  0.329984842
     0.865537218  0.533350593  0.670252731
     0.133334122  0.466656812  0.499962163
     0.067201761  0.333609737  0.670175403
     0.066684835  0.333353801  0.330063560
     0.133346181  0.266673090  0.499982731
     0.866668966  0.933315165  0.330063560
     0.866407976  0.932798239  0.670175403
     0.067201761  0.133592024  0.670175403
     0.066684835  0.133331034  0.330063560
     0.933322691  0.866665878  0.499962163
     0.866677901  0.533364617  0.330026023
     0.866677901  0.733313283  0.330026023
     0.266686717  0.133322099  0.330026023
     0.333334884  0.066669769  0.499937323
     0.133340555  0.866659445  0.499985805
     0.933322691  0.466656812  0.499962163
     0.066603706  0.933396294  0.670566112
     0.066676379  0.933323621  0.329984842
     0.666693706  0.933355322  0.456886238
     0.666637424  0.333362576  0.543072401
     0.733319811  0.266680189  0.373150917
     0.732198793  0.267801207  0.712801486
     0.866666667  0.133333333  0.456942717
     0.866661616  0.333306294  0.456886238
     0.933690238  0.666845119  0.627397420
     0.933291072  0.666645536  0.286944355
     0.733330219  0.266669781  0.287003796
     0.733197327  0.266802673  0.626965051
     0.866642225  0.733330959  0.456843283
     0.666668862  0.333331138  0.456848651
     0.933347908  0.266695817  0.713106266
     0.866702061  0.933334611  0.543087506
     0.933315439  0.066684561  0.287056098
     0.933584387  0.066415613  0.627067323
     0.932259906  0.666129953  0.713505423
     0.732831227  0.066415613  0.627067323
     0.733369122  0.066684561  0.287056098
     0.666693706  0.133338384  0.456886238
     0.733304183  0.066652092  0.713106266
     0.733175847  0.066587924  0.373196170
     0.933425063  0.866632556  0.373111128
     0.932142652  0.865723823  0.713388204
     0.866661616  0.933355322  0.456886238
     0.666632550  0.133297939  0.543087506
     0.933412076  0.266824153  0.373196170
     0.933560165  0.666780082  0.373127535
     0.933347908  0.066652092  0.713106266
     0.733330219  0.866660437  0.287003796
     0.732198793  0.864397587  0.712801486
     0.733319811  0.866639622  0.373150917
     0.733197327  0.866394655  0.626965051
     0.866632851  0.533346976  0.543016544
     0.666632550  0.933334611  0.543087506
     0.933425063  0.466792507  0.373111128
     0.932142652  0.466418829  0.713388204
     0.866642225  0.533311266  0.456843283
     0.733371020  0.665158976  0.626218098
     0.733254893  0.666654413  0.286999273
     0.666668862  0.733337725  0.456848651
     0.727667846  0.661260365  0.712362649
     0.733356246  0.666662591  0.373148932
     0.666637424  0.733274847  0.543072401
     0.933282546  0.466584578  0.286974653
     0.933408101  0.467195947  0.627320048
     0.933584387  0.267168773  0.627067323
     0.866702061  0.333367450  0.543087506
     0.933315439  0.266630878  0.287056098
     0.866632851  0.733285876  0.543016544
     0.733371020  0.468212043  0.626218098
     0.733254893  0.466600480  0.286999273
     0.666669521  0.533334760  0.456824800
     0.727667846  0.466407481  0.712362649
     0.733356246  0.466693655  0.373148932
     0.866666667  0.133333333  0.543066857
     0.933412076  0.066587924  0.373196170
     0.666650058  0.533325029  0.542973025
     0.532804053  0.866212154  0.627320048
     0.533333333  0.466666667  0.373116146
     0.466688767  0.933344383  0.456882439
     0.133348435  0.666696871  0.627551138
     0.066657376  0.933342624  0.543057317
     0.133360293  0.866639707  0.373058150
     0.133195533  0.866804467  0.713680243
     0.066655617  0.933344383  0.456882439
     0.133323205  0.866676795  0.286907228
     0.133348435  0.866651565  0.627551138
     0.266714124  0.133367149  0.543016544
     0.133323205  0.666646410  0.286907228
     0.333219918  0.066439835  0.373127535
     0.266669041  0.133357775  0.456843283
     0.333354464  0.066708928  0.286944355
     0.333154881  0.066309762  0.627397420
     0.266725153  0.333362576  0.543072401
     0.333337409  0.266643754  0.373148932
     0.338739635  0.272332154  0.712362649
     0.266662275  0.333331138  0.456848651
     0.333345587  0.266745107  0.286999273
     0.333870047  0.067740094  0.713505423
     0.066663859  0.733331929  0.456866455
     0.133195533  0.666391066  0.713680243
     0.133360293  0.666720587  0.373058150
     0.066665389  0.133297939  0.543087506
     0.133367444  0.066574937  0.373111128
     0.134276177  0.067857348  0.713388204
     0.066644678  0.133338384  0.456886238
     0.133302032  0.066717454  0.286974653
     0.133787846  0.066591899  0.627320048
     0.066665389  0.333367450  0.543087506
     0.133360378  0.266680189  0.373150917
     0.135602413  0.267801207  0.712801486
     0.066644678  0.333306294  0.456886238
     0.133339563  0.266669781  0.287003796
     0.133605345  0.266802673  0.626965051
     0.066657376  0.533314751  0.543057317
     0.133367444  0.466792507  0.373111128
     0.134276177  0.466418829  0.713388204
     0.066655617  0.533311233  0.456882439
     0.133302032  0.466584578  0.286974653
     0.133787846  0.467195947  0.627320048
     0.066575805  0.733287903  0.543094874
     0.334841024  0.266628980  0.626218098
     0.266714124  0.533346976  0.543016544
     0.333337409  0.466693655  0.373148932
     0.338739635  0.466407481  0.712362649
     0.533592519  0.272332154  0.712362649
     0.466665240  0.333330479  0.456824800
     0.533399520  0.266745107  0.286999273
     0.531787957  0.266628980  0.626218098
     0.466674971  0.533325029  0.542973025
     0.933282546  0.866697968  0.286974653
     0.466665240  0.533334760  0.456824800
     0.533333333  0.466666667  0.286977314
     0.533333333  0.466666667  0.624747031
     0.466653024  0.733285876  0.543016544
     0.533306345  0.666662591  0.373148932
     0.533592519  0.661260365  0.712362649
     0.466688734  0.733330959  0.456843283
     0.533399520  0.666654413  0.286999273
     0.531787957  0.665158976  0.626218098
     0.466685249  0.933342624  0.543057317
     0.533207493  0.866632556  0.373111128
     0.533581171  0.865723823  0.713388204
     0.533306345  0.266643754  0.373148932
     0.533415422  0.866697968  0.286974653
     0.466674971  0.333349942  0.542973025
     0.533415422  0.066717454  0.286974653
     0.266669041  0.533311266  0.456843283
     0.333345587  0.466600480  0.286999273
     0.334841024  0.468212043  0.626218098
     0.266712097  0.733287903  0.543094874
     0.333219918  0.666780082  0.373127535
     0.333870047  0.666129953  0.713505423
     0.266668071  0.733331929  0.456866455
     0.333354464  0.666645536  0.286944355
     0.333154881  0.666845119  0.627397420
     0.266712097  0.933424195  0.543094874
     0.333279413  0.866639707  0.373058150
     0.333608934  0.866804467  0.713680243
     0.266668071  0.933336141  0.456866455
     0.333353590  0.866676795  0.286907228
     0.333303129  0.866651565  0.627551138
     0.466653024  0.133367149  0.543016544
     0.533207493  0.066574937  0.373111128
     0.533581171  0.067857348  0.713388204
     0.466688734  0.133357775  0.456843283
     0.532804053  0.066591899  0.627320048
     0.933408101  0.866212154  0.627320048

  ion indices of the primitive-cell ions
   primitive index   ion index
                 1           1
                 2           2
                 3           3
                 4           4
                 5           5
                 6           6
                 7           7
                 8           8
                 9           9
                10          10
                11          11
                12          12
                13          13
                14          14
                15          15
                16          16
                17          17
                18          18
                19          19
                20          20
                21          21
                22          22
                23          23
                24          24
                25          25
                26          26
                27          27
                28          28
                29          29
                30          30
                31          31
                32          32
                33          33
                34          34
                35          35
                36          36
                37          37
                38          38
                39          39
                40          40
                41          41
                42          42
                43          43
                44          44
                45          45
                46          46
                47          47
                48          48
                49          49
                50          50
                51          51
                52          52
                53          53
                54          54
                55          55
                56          56
                57          57
                58          58
                59          59
                60          60
                61          61
                62          62
                63          63
                64          64
                65          65
                66          66
                67          67
                68          68
                69          69
                70          70
                71          71
                72          72
                73          73
                74          74
                75          75
                76          76
                77          77
                78          78
                79          79
                80          80
                81          81
                82          82
                83          83
                84          84
                85          85
                86          86
                87          87
                88          88
                89          89
                90          90
                91          91
                92          92
                93          93
                94          94
                95          95
                96          96
                97          97
                98          98
                99          99
               100         100
               101         101
               102         102
               103         103
               104         104
               105         105
               106         106
               107         107
               108         108
               109         109
               110         110
               111         111
               112         112
               113         113
               114         114
               115         115
               116         116
               117         117
               118         118
               119         119
               120         120
               121         121
               122         122
               123         123
               124         124
               125         125
               126         126
               127         127
               128         128
               129         129
               130         130
               131         131
               132         132
               133         133
               134         134
               135         135
               136         136
               137         137
               138         138
               139         139
               140         140
               141         141
               142         142
               143         143
               144         144
               145         145
               146         146
               147         147
               148         148
               149         149
               150         150
               151         151
               152         152
               153         153
               154         154
               155         155
               156         156
               157         157
               158         158
               159         159
               160         160
               161         161
               162         162
               163         163
               164         164
               165         165
               166         166
               167         167
               168         168
               169         169
               170         170
               171         171
               172         172
               173         173
               174         174
               175         175
               176         176
               177         177
               178         178
               179         179
               180         180
               181         181
               182         182
               183         183
               184         184
               185         185
               186         186
               187         187
               188         188
               189         189
               190         190
               191         191
               192         192
               193         193
               194         194
               195         195
               196         196
               197         197
               198         198
               199         199
               200         200
               201         201
               202         202
               203         203
               204         204
               205         205
               206         206
               207         207
               208         208
               209         209
               210         210
               211         211
               212         212
               213         213
               214         214
               215         215
               216         216
               217         217
               218         218
               219         219
               220         220
               221         221
               222         222
               223         223
               224         224

----------------------------------------------------------------------------------------

 
 
 KPOINTS: K-Points                                

Automatic generation of k-mesh.
 Grid dimensions read from file:
 generate k-points for:    3    3    1

 Generating k-lattice:

  Cartesian coordinates                     Fractional coordinates (reciprocal lattice)
     0.021066650 -0.012162836  0.000000000     0.333333333  0.000000000  0.000000000
     0.021066650  0.012162836  0.000000000    -0.000000000  0.333333333  0.000000000
     0.000000000  0.000000000  0.027459467     0.000000000  0.000000000  1.000000000

  Length of vectors
     0.024325672  0.024325672  0.027459467

  Shift w.r.t. Gamma in fractional coordinates (k-lattice)
     0.000000000  0.000000000  0.000000000

 
 Subroutine IBZKPT returns following result:
 ===========================================
 
 Found      3 irreducible k-points:
 
 Following reciprocal coordinates:
            Coordinates               Weight
  0.000000  0.000000  0.000000      1.000000
  0.333333  0.000000  0.000000      6.000000
  0.333333  0.333333  0.000000      2.000000
 
 Following cartesian coordinates:
            Coordinates               Weight
  0.000000  0.000000  0.000000      1.000000
  0.021067 -0.012163  0.000000      6.000000
  0.042133 -0.000000  0.000000      2.000000
 


--------------------------------------------------------------------------------------------------------




 Dimension of arrays:
   k-points           NKPTS =      3   k-points in BZ     NKDIM =      3   number of bands    NBANDS=   1280
   number of dos      NEDOS =    301   number of ions     NIONS =    224
   non local maximal  LDIM  =      6   non local SUM 2l+1 LMDIM =     18
   total plane-waves  NPLWV = ******
   max r-space proj   IRMAX =   3534   max aug-charges    IRDMAX=  11632
   dimension x,y,z NGX =    96 NGY =   96 NGZ =  224
   dimension x,y,z NGXF=   192 NGYF=  192 NGZF=  448
   support grid    NGXF=   192 NGYF=  192 NGZF=  448
   ions per type =              75 149
   NGX,Y,Z   is equivalent  to a cutoff of  10.09, 10.09, 10.23 a.u.
   NGXF,Y,Z  is equivalent  to a cutoff of  20.17, 20.17, 20.45 a.u.

 SYSTEM =  unknown system                          
 POSCAR =  Mo  S                                   

 Startparameter for this run:
   NWRITE =      2    write-flag & timer
   PREC   = normal    normal or accurate (medium, high low for compatibility)
   ISTART =      0    job   : 0-new  1-cont  2-samecut
   ICHARG =      2    charge: 1-file 2-atom 10-const
   ISPIN  =      2    spin polarized calculation?
   LNONCOLLINEAR =      F non collinear calculations
   LSORBIT =      F    spin-orbit coupling
   INIWAV =      1    electr: 0-lowe 1-rand  2-diag
   LASPH  =      T    aspherical Exc in radial PAW
 Electronic Relaxation 1
   ENCUT  =  600.0 eV  44.10 Ry    6.64 a.u.  31.60 31.60 72.73*2*pi/ulx,y,z
   ENINI  =  600.0     initial cutoff
   ENAUG  =  446.0 eV  augmentation charge cutoff
   NELM   =   2000;   NELMIN=  2; NELMDL=  0     # of ELM steps 
   EDIFF  = 0.1E-05   stopping-criterion for ELM
   LREAL  =      T    real-space projection
   NLSPLINE    = F    spline interpolate recip. space projectors
   LCOMPAT=      F    compatible to vasp.4.4
   GGA_COMPAT  = T    GGA compatible to vasp.4.4-vasp.4.6
   LMAXPAW     = -100 max onsite density
   LMAXMIX     =    2 max onsite mixed and CHGCAR
   VOSKOWN=      0    Vosko Wilk Nusair interpolation
   ROPT   =   -0.00050  -0.00050
 Ionic relaxation
   EDIFFG = -.1E-01   stopping-criterion for IOM
   NSW    =   5000    number of steps for IOM
   NBLOCK =      1;   KBLOCK =   5000    inner block; outer block 
   IBRION =      2    ionic relax: 0-MD 1-quasi-New 2-CG
   NFREE  =      1    steps in history (QN), initial steepest desc. (CG)
   ISIF   =      2    stress and relaxation
   IWAVPR =     11    prediction:  0-non 1-charg 2-wave 3-comb
   ISYM   =      2    0-nonsym 1-usesym 2-fastsym
   LCORR  =      T    Harris-Foulkes like correction to forces

   POTIM  = 0.5000    time-step for ionic-motion
   TEIN   =    0.0    initial temperature
   TEBEG  =    0.0;   TEEND  =   0.0 temperature during run
   SMASS  =  -3.00    Nose mass-parameter (am)
   estimated Nose-frequenzy (Omega)   =  0.10E-29 period in steps = 0.13E+47 mass=  -0.572E-26a.u.
   SCALEE = 1.0000    scale energy and forces
   NPACO  =    256;   APACO  = 10.0  distance and # of slots for P.C.
   PSTRESS=    0.0 pullay stress

  Mass of Ions in am
   POMASS =  95.94 32.07
  Ionic Valenz
   ZVAL   =  14.00  6.00
  Atomic Wigner-Seitz radii
   RWIGS  =  -1.00 -1.00
  virtual crystal weights 
   VCA    =   1.00  1.00
   NELECT =    1944.0000    total number of electrons
   NUPDOWN=      -1.0000    fix difference up-down

 DOS related values:
   EMIN   =  10.00;   EMAX   =-10.00  energy-range for DOS
   EFERMI =   0.00
   ISMEAR =     0;   SIGMA  =   0.05  broadening in eV -4-tet -1-fermi 0-gaus

 Electronic relaxation 2 (details)
   IALGO  =     38    algorithm
   LDIAG  =      T    sub-space diagonalisation (order eigenvalues)
   LSUBROT=      F    optimize rotation matrix (better conditioning)
   TURBO    =      0    0=normal 1=particle mesh
   IRESTART =      0    0=no restart 2=restart with 2 vectors
   NREBOOT  =      0    no. of reboots
   NMIN     =      0    reboot dimension
   EREF     =   0.00    reference energy to select bands
   IMIX   =      4    mixing-type and parameters
     AMIX     =   0.40;   BMIX     =  1.00
     AMIX_MAG =   1.60;   BMIX_MAG =  1.00
     AMIN     =   0.10
     WC   =   100.;   INIMIX=   1;  MIXPRE=   1;  MAXMIX= -45

 Intra band minimization:
   WEIMIN = 0.0010     energy-eigenvalue tresh-hold
   EBREAK =  0.20E-09  absolut break condition
   DEPER  =   0.30     relativ break condition  

   TIME   =   0.40     timestep for ELM

  volume/ion in A,a.u.               =      35.25       237.88
  Fermi-wavevector in a.u.,A,eV,Ry     =   1.026058  1.938968 14.324145  1.052795
  Thomas-Fermi vector in A             =   2.159931
 
 Write flags
   LWAVE        =      F    write WAVECAR
   LDOWNSAMPLE  =      F    k-point downsampling of WAVECAR
   LCHARG       =      F    write CHGCAR
   LVTOT        =      F    write LOCPOT, total local potential
   LVHAR        =      F    write LOCPOT, Hartree potential only
   LELF         =      F    write electronic localiz. function (ELF)
   LORBIT       =      0    0 simple, 1 ext, 2 COOP (PROOUT), +10 PAW based schemes


 Dipole corrections
   LMONO  =      F    monopole corrections only (constant potential shift)
   LDIPOL =      T    correct potential (dipole corrections)
   IDIPOL =      3    1-x, 2-y, 3-z, 4-all directions 
   EPSILON=  1.0000000 bulk dielectric constant

 Exchange correlation treatment:
   GGA     =    MK    GGA type
   LEXCH   =    43    internal setting for exchange type
   LIBXC   =     F    Libxc                    
   VOSKOWN =     0    Vosko Wilk Nusair interpolation
   LHFCALC =     F    Hartree Fock is set to
   LHFONE  =     F    Hartree Fock one center treatment
   AEXX    =    0.0000 exact exchange contribution

 vdW DFT:
   LUSE_VDW   =     T    switch on vdW DFT
   Zab_VDW    =-.8491    correlation parameter
   PARAM1     =0.1234
   PARAM2     =1.0000
   PARAM3     =0.0000
   -- rVV10 --
   BPARAM     = 6.3000
   CPARAM     = 0.0093

 Linear response parameters
   LEPSILON=     F    determine dielectric tensor
   LRPA    =     F    only Hartree local field effects (RPA)
   LNABLA  =     F    use nabla operator in PAW spheres
   LVEL    =     F    velocity operator in full k-point grid
   CSHIFT  =0.1000    complex shift for real part using Kramers Kronig
   OMEGAMAX=  -1.0    maximum frequency
   DEG_THRESHOLD= 0.2000000E-02 threshold for treating states as degnerate
   RTIME   =   -0.100 relaxation time in fs
  (WPLASMAI=    0.000 imaginary part of plasma frequency in eV, 0.658/RTIME)
   DFIELD  = 0.0000000 0.0000000 0.0000000 field for delta impulse in time
 
  Optional k-point grid parameters
   LKPOINTS_OPT  =     F    use optional k-point grid
   KPOINTS_OPT_MODE=     1    mode for optional k-point grid
 
 Orbital magnetization related:
   ORBITALMAG=     F  switch on orbital magnetization
   LCHIMAG   =     F  perturbation theory with respect to B field
   DQ        =  0.001000  dq finite difference perturbation B field
   LLRAUG    =     F  two centre corrections for induced B field



--------------------------------------------------------------------------------------------------------


 conjugate gradient relaxation of ions
 charge density and potential will be updated during run
 spin polarized calculation
 Variant of blocked Davidson
 Davidson routine will perform the subspace rotation
 perform sub-space diagonalisation
    after iterative eigenvector-optimisation
 modified Broyden-mixing scheme, WC =      100.0
 initial mixing is a Kerker type mixing with AMIX =  0.4000 and BMIX =      1.0000
 Hartree-type preconditioning will be used
 using additional bands          308
 real space projection scheme for non local part
 use partial core corrections
 calculate Harris-corrections to forces 
   (improved forces if not selfconsistent)
 use gradient corrections 
 use of overlap-Matrix (Vanderbilt PP)
 Gauss-broadening in eV      SIGMA  =   0.05


--------------------------------------------------------------------------------------------------------


  energy-cutoff  :      600.00
  volume of cell :     7895.96
      direct lattice vectors                 reciprocal lattice vectors
     7.911398535-13.702944222  0.000000000     0.063199951 -0.036488509  0.000000000
     7.911398535 13.702944222  0.000000000     0.063199951  0.036488509  0.000000000
     0.000000000  0.000000000 36.417313048     0.000000000  0.000000000  0.027459467

  length of vectors
    15.822797071 15.822797071 36.417313048     0.072977017  0.072977017  0.027459467


 
 k-points in units of 2pi/SCALE and weight: K-Points                                
   0.00000000  0.00000000  0.00000000       0.111
   0.02106665 -0.01216284  0.00000000       0.667
   0.04213330 -0.00000000  0.00000000       0.222
 
 k-points in reciprocal lattice and weights: K-Points                                
   0.00000000  0.00000000  0.00000000       0.111
   0.33333333  0.00000000  0.00000000       0.667
   0.33333333  0.33333333  0.00000000       0.222
 
 position of ions in fractional coordinates (direct lattice) 
   0.13333412  0.06667731  0.49996216
   0.66543638  0.73087276  0.66934338
   0.26675908  0.93351815  0.67065239
   0.26665733  0.93331467  0.32995569
   0.33331889  0.86665944  0.49998580
   0.73332691  0.86665382  0.49998273
   0.66664620  0.93331516  0.33006356
   0.66639026  0.93279824  0.67017540
   0.26675908  0.73324092  0.67065239
   0.26665733  0.73334267  0.32995569
   0.66666477  0.73332954  0.33005776
   0.33333488  0.66666512  0.49993732
   0.26781338  0.53335059  0.67025273
   0.26668672  0.53336462  0.33002602
   0.33333726  0.46664287  0.49992965
   0.86666667  0.13333333  0.33012866
   0.86666667  0.13333333  0.67003758
   0.26912724  0.33456362  0.66934338
   0.26667046  0.33333523  0.33005776
   0.33333726  0.26669440  0.49992965
   0.93334964  0.26669927  0.49999516
   0.73330073  0.06665036  0.49999516
   0.53334319  0.06667731  0.49996216
   0.46663538  0.13332210  0.33002602
   0.46664941  0.13446278  0.67025273
   0.66664620  0.13333103  0.33006356
   0.66639026  0.13359202  0.67017540
   0.46679259  0.93339629  0.67056611
   0.46664724  0.93332362  0.32998484
   0.53334319  0.86666588  0.49996216
   0.73332691  0.26667309  0.49998273
   0.46664941  0.73218662  0.67025273
   0.46663538  0.73331328  0.33002602
   0.53335713  0.66666274  0.49992965
   0.66666477  0.33333523  0.33005776
   0.66543638  0.33456362  0.66934338
   0.46881619  0.53118381  0.66827735
   0.46667234  0.53332766  0.33004458
   0.53333333  0.46666667  0.49990390
   0.73330560  0.46664287  0.49992965
   0.66665532  0.53332766  0.33004458
   0.66236761  0.53118381  0.66827735
   0.46881619  0.33763239  0.66827735
   0.46667234  0.33334468  0.33004458
   0.53335713  0.26669440  0.49992965
   0.73330560  0.66666274  0.49992965
   0.86666897  0.33335380  0.33006356
   0.86640798  0.33360974  0.67017540
   0.93334964  0.06665036  0.49999516
   0.26781338  0.13446278  0.67025273
   0.06648185  0.73324092  0.67065239
   0.06668533  0.73334267  0.32995569
   0.13334056  0.66668111  0.49998580
   0.93333023  0.66666512  0.49993732
   0.86553722  0.73218662  0.67025273
   0.06660371  0.53320741  0.67056611
   0.06667638  0.53335276  0.32998484
   0.86553722  0.53335059  0.67025273
   0.13333412  0.46665681  0.49996216
   0.06720176  0.33360974  0.67017540
   0.06668484  0.33335380  0.33006356
   0.13334618  0.26667309  0.49998273
   0.86666897  0.93331516  0.33006356
   0.86640798  0.93279824  0.67017540
   0.06720176  0.13359202  0.67017540
   0.06668484  0.13333103  0.33006356
   0.93332269  0.86666588  0.49996216
   0.86667790  0.53336462  0.33002602
   0.86667790  0.73331328  0.33002602
   0.26668672  0.13332210  0.33002602
   0.33333488  0.06666977  0.49993732
   0.13334056  0.86665944  0.49998580
   0.93332269  0.46665681  0.49996216
   0.06660371  0.93339629  0.67056611
   0.06667638  0.93332362  0.32998484
   0.66669371  0.93335532  0.45688624
   0.66663742  0.33336258  0.54307240
   0.73331981  0.26668019  0.37315092
   0.73219879  0.26780121  0.71280149
   0.86666667  0.13333333  0.45694272
   0.86666162  0.33330629  0.45688624
   0.93369024  0.66684512  0.62739742
   0.93329107  0.66664554  0.28694436
   0.73333022  0.26666978  0.28700380
   0.73319733  0.26680267  0.62696505
   0.86664222  0.73333096  0.45684328
   0.66666886  0.33333114  0.45684865
   0.93334791  0.26669582  0.71310627
   0.86670206  0.93333461  0.54308751
   0.93331544  0.06668456  0.28705610
   0.93358439  0.06641561  0.62706732
   0.93225991  0.66612995  0.71350542
   0.73283123  0.06641561  0.62706732
   0.73336912  0.06668456  0.28705610
   0.66669371  0.13333838  0.45688624
   0.73330418  0.06665209  0.71310627
   0.73317585  0.06658792  0.37319617
   0.93342506  0.86663256  0.37311113
   0.93214265  0.86572382  0.71338820
   0.86666162  0.93335532  0.45688624
   0.66663255  0.13329794  0.54308751
   0.93341208  0.26682415  0.37319617
   0.93356016  0.66678008  0.37312753
   0.93334791  0.06665209  0.71310627
   0.73333022  0.86666044  0.28700380
   0.73219879  0.86439759  0.71280149
   0.73331981  0.86663962  0.37315092
   0.73319733  0.86639465  0.62696505
   0.86663285  0.53334698  0.54301654
   0.66663255  0.93333461  0.54308751
   0.93342506  0.46679251  0.37311113
   0.93214265  0.46641883  0.71338820
   0.86664222  0.53331127  0.45684328
   0.73337102  0.66515898  0.62621810
   0.73325489  0.66665441  0.28699927
   0.66666886  0.73333772  0.45684865
   0.72766785  0.66126037  0.71236265
   0.73335625  0.66666259  0.37314893
   0.66663742  0.73327485  0.54307240
   0.93328255  0.46658458  0.28697465
   0.93340810  0.46719595  0.62732005
   0.93358439  0.26716877  0.62706732
   0.86670206  0.33336745  0.54308751
   0.93331544  0.26663088  0.28705610
   0.86663285  0.73328588  0.54301654
   0.73337102  0.46821204  0.62621810
   0.73325489  0.46660048  0.28699927
   0.66666952  0.53333476  0.45682480
   0.72766785  0.46640748  0.71236265
   0.73335625  0.46669366  0.37314893
   0.86666667  0.13333333  0.54306686
   0.93341208  0.06658792  0.37319617
   0.66665006  0.53332503  0.54297303
   0.53280405  0.86621215  0.62732005
   0.53333333  0.46666667  0.37311615
   0.46668877  0.93334438  0.45688244
   0.13334844  0.66669687  0.62755114
   0.06665738  0.93334262  0.54305732
   0.13336029  0.86663971  0.37305815
   0.13319553  0.86680447  0.71368024
   0.06665562  0.93334438  0.45688244
   0.13332320  0.86667680  0.28690723
   0.13334844  0.86665156  0.62755114
   0.26671412  0.13336715  0.54301654
   0.13332320  0.66664641  0.28690723
   0.33321992  0.06643984  0.37312753
   0.26666904  0.13335778  0.45684328
   0.33335446  0.06670893  0.28694436
   0.33315488  0.06630976  0.62739742
   0.26672515  0.33336258  0.54307240
   0.33333741  0.26664375  0.37314893
   0.33873963  0.27233215  0.71236265
   0.26666228  0.33333114  0.45684865
   0.33334559  0.26674511  0.28699927
   0.33387005  0.06774009  0.71350542
   0.06666386  0.73333193  0.45686646
   0.13319553  0.66639107  0.71368024
   0.13336029  0.66672059  0.37305815
   0.06666539  0.13329794  0.54308751
   0.13336744  0.06657494  0.37311113
   0.13427618  0.06785735  0.71338820
   0.06664468  0.13333838  0.45688624
   0.13330203  0.06671745  0.28697465
   0.13378785  0.06659190  0.62732005
   0.06666539  0.33336745  0.54308751
   0.13336038  0.26668019  0.37315092
   0.13560241  0.26780121  0.71280149
   0.06664468  0.33330629  0.45688624
   0.13333956  0.26666978  0.28700380
   0.13360535  0.26680267  0.62696505
   0.06665738  0.53331475  0.54305732
   0.13336744  0.46679251  0.37311113
   0.13427618  0.46641883  0.71338820
   0.06665562  0.53331123  0.45688244
   0.13330203  0.46658458  0.28697465
   0.13378785  0.46719595  0.62732005
   0.06657581  0.73328790  0.54309487
   0.33484102  0.26662898  0.62621810
   0.26671412  0.53334698  0.54301654
   0.33333741  0.46669366  0.37314893
   0.33873963  0.46640748  0.71236265
   0.53359252  0.27233215  0.71236265
   0.46666524  0.33333048  0.45682480
   0.53339952  0.26674511  0.28699927
   0.53178796  0.26662898  0.62621810
   0.46667497  0.53332503  0.54297303
   0.93328255  0.86669797  0.28697465
   0.46666524  0.53333476  0.45682480
   0.53333333  0.46666667  0.28697731
   0.53333333  0.46666667  0.62474703
   0.46665302  0.73328588  0.54301654
   0.53330634  0.66666259  0.37314893
   0.53359252  0.66126037  0.71236265
   0.46668873  0.73333096  0.45684328
   0.53339952  0.66665441  0.28699927
   0.53178796  0.66515898  0.62621810
   0.46668525  0.93334262  0.54305732
   0.53320749  0.86663256  0.37311113
   0.53358117  0.86572382  0.71338820
   0.53330634  0.26664375  0.37314893
   0.53341542  0.86669797  0.28697465
   0.46667497  0.33334994  0.54297303
   0.53341542  0.06671745  0.28697465
   0.26666904  0.53331127  0.45684328
   0.33334559  0.46660048  0.28699927
   0.33484102  0.46821204  0.62621810
   0.26671210  0.73328790  0.54309487
   0.33321992  0.66678008  0.37312753
   0.33387005  0.66612995  0.71350542
   0.26666807  0.73333193  0.45686646
   0.33335446  0.66664554  0.28694436
   0.33315488  0.66684512  0.62739742
   0.26671210  0.93342419  0.54309487
   0.33327941  0.86663971  0.37305815
   0.33360893  0.86680447  0.71368024
   0.26666807  0.93333614  0.45686646
   0.33335359  0.86667680  0.28690723
   0.33330313  0.86665156  0.62755114
   0.46665302  0.13336715  0.54301654
   0.53320749  0.06657494  0.37311113
   0.53358117  0.06785735  0.71338820
   0.46668873  0.13335778  0.45684328
   0.53280405  0.06659190  0.62732005
   0.93340810  0.86621215  0.62732005
 
 position of ions in cartesian coordinates  (Angst):
   1.58237014 -0.91339458 18.20727861
  11.04675805  0.89667104 24.37568742
   9.49587152  9.13656244 24.42335816
   9.49345675  9.13516827 12.01609954
   9.49350684  7.30833588 18.20813956
  12.65808520  1.82697121 18.20802762
  12.65793199  3.65414996 12.02002800
  12.65181757  3.65057364 24.40598747
   7.91139854  6.39217472 24.42335816
   7.91139854  6.39496306 12.01609954
  11.07591292  0.91350362 12.01981688
   7.91139854  4.56760556 18.20637400
   6.33832745  3.63864169 24.40880352
   6.32952495  3.65427240 12.01866101
   6.32896162  1.82667922 18.20609450
   7.91139854-10.04882576 12.02239858
   7.91139854-10.04882576 24.40096822
   4.77603902  0.89667104 24.37568742
   4.74688415  0.91350362 12.01981688
   4.74708962 -0.91320346 18.20609450
   9.49406516 -9.13507276 18.20848010
   6.32873191 -9.13507276 18.20848010
   4.74700128 -6.39469650 18.20727861
   4.74650274 -4.56737333 12.01866101
   4.75563809 -4.55193479 24.40880352
   6.32893871 -7.30798796 12.02002800
   6.32897869 -7.30090455 24.40598747
  11.07745227  6.39384456 24.42021603
  11.07572744  6.39484039 12.01716128
  11.07602968  4.56750224 18.20727861
   7.91139854 -6.39453126 18.20802762
   9.48446962  3.63864169 24.40880352
   9.49327212  3.65427240 12.01866101
   9.49383545  1.82667922 18.20609450
   7.91139854 -4.56759607 12.01981688
   7.91139854 -4.53393093 24.37568742
   7.91139854  0.85461992 24.33686557
   7.91139854  0.91337417 12.01933668
   7.91139854 -0.91352961 18.20515667
   9.49327054 -3.65406460 18.20609450
   9.49354362 -1.82698151 12.01933668
   9.44266095 -1.79760438 24.33686557
   6.38013612 -1.79760438 24.33686557
   6.32925345 -1.82698151 12.01933668
   6.32952653 -3.65406460 18.20609450
  11.07570745 -0.91320346 18.20609450
   9.49385836 -7.30798796 12.02002800
   9.49381838 -7.30090455 24.40598747
   7.91139854-11.87633177 18.20848010
   3.18256700 -1.82729574 24.40880352
   6.32692555  9.13656244 24.42335816
   6.32934032  9.13516827 12.01609954
   6.32929023  7.30833588 18.20813956
  12.65820084 -3.65409720 18.20637400
  12.64023007 -1.82729574 24.40880352
   4.74534480  6.39384456 24.42021603
   4.74706963  6.39484039 12.01716128
  11.06715898 -4.55193479 24.40880352
   4.74676739  4.56750224 18.20727861
   3.17097950  3.65057364 24.40598747
   3.16486508  3.65414996 12.02002800
   3.16471188  1.82697121 18.20802762
  14.24039181  0.91324915 12.02002800
  14.23423742  0.90974207 24.40598747
   1.58855965  0.90974207 24.40598747
   1.58240526  0.91324915 12.02002800
  14.24042693 -0.91339458 18.20727861
  11.07629433 -4.56737333 12.01866101
  12.65816791 -1.82748791 12.01866101
   3.16462916 -1.82748791 12.01866101
   3.16459623 -3.65409720 18.20637400
   7.91139854 10.04862784 18.20813956
  11.07579579 -6.39469650 18.20727861
   7.91139854 11.87761048 24.42021603
   7.91139854 11.87561882 12.01716128
  12.65862554  3.65404925 16.63856915
   7.91139854 -4.56684664 19.77723764
   7.91139854 -6.39433671 13.58915376
   7.91139854 -6.36361423 25.95831487
   7.91139854-10.04882576 16.64062597
   9.49342437 -7.30853823 16.63856915
  12.66247308 -3.65656378 22.84812824
  12.65773614 -3.65382891 10.44974241
   7.91139854 -6.39462194 10.45190708
   7.91139854 -6.39097994 22.83238255
  12.65802550 -1.82675684 16.63700485
   7.91139854 -4.56770825 16.63720032
   9.49402417 -9.13509643 25.96941414
  14.24080749  0.91306212 19.77778770
   7.91139854-11.87539458 10.45381178
   7.91139854-11.88276533 22.83610700
  12.64549918 -3.64676390 25.98395034
   6.32316028 -9.13185598 22.83610700
   6.32954353 -9.13554135 10.45381178
   6.32937270 -7.30853823 16.63856915
   6.32877290 -9.13509643 25.96941414
   6.32724993 -9.13421714 13.59080175
  14.24097320 -0.91525400 13.58770476
  14.22363820 -0.91013351 25.97968155
  14.24065137  0.91390013 16.63856915
   6.32856890 -7.30825443 19.77778770
   9.49554714 -9.13421714 13.59080175
  12.66092949 -3.65567259 13.58830224
   7.91139854-11.87628443 25.96941414
  12.65816373  1.82701655 10.45190708
  12.63131026  1.81151269 25.95831487
[...]
  266          rspher_all                            0.313102                          9   4
  267          phaser                                0.268917                         27   4
  268          rpro_isp                             12.913403                         27   4
  269            fftwav_mpi                           10.728357                     1080   5
  270              fft3d_mpi                             9.165257                   1080   6
  271                fftbas_mpi                            9.159811                 1080   7
  272                  fftbas_plan_mpi                       9.155806               1080   8
  273                    dfftw_execute                         3.703277             3240   9
  274                    map_forward                           4.834498             2160   9
  275                      map_gather                            0.985291           1080  10
  276                      m_alltoallv_z                         1.537826           1080  10
  277                      map_scatter                           1.319828           1080  10
  278            rpromu                                2.174989                      270   5
  279              crrexp_mul_wave                       0.780735                 241920   6
  280              rpromu_gemm                           0.695171                  60480   6
  281              m_sumb_d                              0.241411                   1080   6
  282          m_sumb_d                              0.102137                          1   4
  283        m_sumb_d                              0.005188                            7   3
  284        fft3d_mpi                             0.828112                           82   3
  285          fftbrc_mpi                            0.795757                         82   4
  286            fftbas_plan_mpi                       0.795430                       82   5
  287              dfftw_execute                         0.065828                    246   6
  288              map_forward                           0.428622                     80   6
  289                map_gather                            0.001902                   40   7
  290                m_alltoallv_z                         0.360325                   40   7
  291                map_scatter                           0.065619                   40   7
  292              map_backward                          0.246009                     84   6
  293                map_gather                            0.033097                   42   7
  294                m_alltoallv_z                         0.208401                   42   7
  295                map_scatter                           0.003659                   42   7
  296        forhar                                0.140884                            2   3
  297          m_sumb_d                              0.003387                          2   4
  298        strehar                               0.002269                            1   3
  299          m_sumb_d                              0.000488                          1   4
  300        chggra                                0.047199                            1   3
  301          fft3d_mpi                             0.039395                          3   4
  302            fftbrc_mpi                            0.038354                        3   5
  303              fftbas_plan_mpi                       0.038343                      3   6
  304                dfftw_execute                         0.003404                    9   7
  305                map_backward                          0.007335                    2   7
  306                  map_gather                            0.000806                  1   8
  307                  m_alltoallv_z                         0.006381                  1   8
  308                  map_scatter                           0.000121                  1   8
  309                map_forward                           0.025620                    4   7
  310                  map_gather                            0.000126                  2   8
  311                  m_alltoallv_z                         0.023597                  2   8
  312                  map_scatter                           0.001859                  2   8
  313          m_sumb_d                              0.000222                          2   4
  314          pothar                                0.001513                          1   4
  315            m_sumb_d                              0.001351                        1   5
  316        brmix                                 0.014595                            1   3
  317          m_sumb_d                              0.000695                          6   4
  318          brpre                                 0.000151                          2   4
  319          setg0                                 0.000743                          1   4
  320          broyd                                 0.011282                          1   4
  321            m_sumb_d                              0.005196                       39   5
  322            brget                                 0.001762                      169   5
  323            brsav                                 0.000622                       37   5
  324        m_bcast_d                             0.001032                            2   3
  325      potlok                                2.342256                              1   2
  326        fft3d_mpi                             0.904732                           86   3
  327          fftbrc_mpi                            0.872128                         86   4
  328            fftbas_plan_mpi                       0.871857                       86   5
  329              dfftw_execute                         0.072243                    258   6
  330              map_forward                           0.471220                     88   6
  331                map_gather                            0.002255                   46   7
  332                m_alltoallv_z                         0.406659                   46   7
  333                map_scatter                           0.061356                   46   7
  334              map_backward                          0.272448                     84   6
  335                map_gather                            0.033295                   42   7
  336                m_alltoallv_z                         0.234753                   42   7
  337                map_scatter                           0.003608                   42   7
  338        m_sumb_d                              0.002837                            8   3
  339        fewald                                0.001783                            2   3
  340          rsp                                   0.001551                          2   4
  341          rcp                                   0.000207                          2   4
  342        pothar                                0.001801                            1   3
  343          m_sumb_d                              0.001652                          1   4
  344        m_bcast_d                             0.009836                            2   3
  345      potlok_metagga                        0.000001                              1   2
  346      set_dd_magatom                        0.000001                              1   2
  347      set_dd_paw                            2.811861                              1   2
  348        set_rsgf_all                          0.000001                            1   3
  349        m_sumb_d                              2.811541                            7   3
  350      m_bcast_d                             0.000375                              2   2
  351      densta                                0.002772                              1   2
  352        m_sumb_d                              0.001862                            6   3
 
 Flat profile
 ============
 
             routine name                   CPU           calls
 ---------------------------------------------------------------
 eddav                                2126.897361          37
 lapack                                361.415549       13852
 m_sumb_d                              332.973620      101532
 total_time                            311.280498           1
 dfftw_execute                         146.353256      134958
 m_alltoall_d                          125.543831      102004
 orth1                                 121.673526       41676
 ggemm                                 102.308282       18292
 m_bcast_z                              96.767991       21652
 m_alltoallv_z                          91.335133       45120
 set_charge                             58.098339          33
 fftwav_mpi                             50.753880       27992
 map_scatter                            50.038851       45120
 map_gather                             49.816194       45120
 potlok                                 49.600756          34
 vhamil                                 34.386009       13852
 map_forward                            32.558580       59062
 lincom                                 29.667049         228
 fftbas_plan_mpi                        26.175324       44986
 racc0                                  22.230933       13852
 rpro1                                  16.258437        9412
 crrexp_mul_work_add                    14.716828     3102848
 crrexp_mul_wave                         8.602811     2457728
 eccp                                    6.134038        4440
 m_bcast_d                               5.650559       27776
 redis_pw                                5.255265       37572
 w1_copy                                 5.186506       41556
 fftext_mpi                              4.958771       13852
 pw_charge                               4.523900        3168
 kinhamil                                2.758402       13852
 phaser                                  2.645633         261
 augmentation_charge                     2.396819          33
 setdij_                                 2.267943          61
 apply_precond                           2.250064        9412
 choleski                                1.617969           6
 force_and_stress                        1.473997           1
 fft3d_mpi                               1.427928       44986
 rpromu_gemm                             1.017771       87360
 redis_proj                              0.939755       46990
 overl                                   0.827969       23270
 setup_precond                           0.764048        4440
 overl1                                  0.682757       13852
 rpromu                                  0.660429         390
 map_backward                            0.478551       30910
 rspher_all                              0.473000          14
 inisym                                  0.355050           1
 elmin                                   0.305156           1
 hamiltmu                                0.276760       13852
 soft_charge                             0.263878          33
 newband                                 0.235113       14074
 brmix                                   0.156885          33
 raccmu_                                 0.155473       13852
 fftbas_mpi                              0.142995       41844
 forhar                                  0.137497           2
 orthch                                  0.136698           1
 forloc                                  0.068403           1
 broyd                                   0.067943          33
 depsum                                  0.065412          33
 w1_projall                              0.061482        9412
 rsp                                     0.059874          69
 stufak                                  0.045678           1
 densta                                  0.045545          38
 setg0                                   0.034222          35
 brget                                   0.025619        2931
 strnlr                                  0.021581           1
 rpro_isp                                0.019643          39
 truncate_high_frequency_w1              0.018794       18292
 fft_gq                                  0.016406          33
 set_dd_paw                              0.016406          35
 strkin                                  0.013656           1
 brsav                                   0.011682         699
 fftbrc_mpi                              0.010794        3142
 fewald                                  0.009021          69
 brpre                                   0.008291          66
 rcp                                     0.007614          69
 fornlr                                  0.007228           1
 chggra                                  0.006069           1
 pothar                                  0.005874          35
 strelo                                  0.001882           1
 posmap                                  0.001860           2
 strehar                                 0.001781           1
 vectorpot                               0.000682          34
 brgrid                                  0.000483           1
 fordep                                  0.000399           1
 crpa_reader                             0.000246           1
 proall                                  0.000092           1
 set_rsgf_all                            0.000085          35
 potlok_metagga                          0.000084          34
 set_dd_magatom                          0.000052          35
 rotate_active_occupied_orbital          0.000017           1
 redis_pw_over_bands                     0.000001           1
 ---------------------------------------------------------------
  summed up times    4316.66552019119     
 
 Accumulative profile
 ====================
 
             routine name                   CPU           calls
 ---------------------------------------------------------------
 total_time                           4316.665520           1
 elmin                                3896.766807           1
 eddav                                3618.952110          37
 fft3d_mpi                             398.337607       44986
 fftbas_plan_mpi                       396.755889       44986
 fftbas_mpi                            367.514078       41844
 lapack                                361.415549       13852
 m_sumb_d                              332.973620      101532
 fftwav_mpi                            313.452601       27992
 hamiltmu                              190.097874       13852
 map_forward                           163.370760       59062
 dfftw_execute                         146.353256      134958
 m_alltoall_d                          125.543831      102004
 orth1                                 121.673526       41676
 kinhamil                              112.739288       13852
 fftext_mpi                            109.980886       13852
 set_charge                            108.395518          33
 ggemm                                 102.308282       18292
 set_dd_paw                             99.281430          35
 m_bcast_z                              96.767991       21652
 m_alltoallv_z                          91.335133       45120
 potlok                                 78.654363          34
 redis_pw                               76.931385       37572
 newband                                69.442861       14074
 map_backward                           60.856549       30910
 redis_proj                             54.807466       46990
 map_scatter                            50.038851       45120
 map_gather                             49.816194       45120
 raccmu_                                42.695817       13852
 racc0                                  41.857586       13852
 soft_charge                            39.082716          33
 vhamil                                 34.386009       13852
 lincom                                 29.667049         228
 fftbrc_mpi                             29.395600        3142
 force_and_stress                       28.291697           1
 w1_projall                             26.908442        9412
 rpro1                                  26.846960        9412
 rpro_isp                               18.729946          39
 crrexp_mul_work_add                    14.716828     3102848
 strnlr                                 13.619140           1
 crrexp_mul_wave                         8.602811     2457728
 eccp                                    7.192727        4440
 m_bcast_d                               5.650559       27776
 w1_copy                                 5.186506       41556
 fornlr                                  4.584792           1
 pw_charge                               4.523900        3168
 orthch                                  4.137102           1
 augmentation_charge                     3.440072          33
 setdij_                                 3.157137          61
 rpromu                                  3.119693         390
 phaser                                  2.645633         261
 apply_precond                           2.250064        9412
 choleski                                1.617969           6
 proall                                  1.529676           1
 rpromu_gemm                             1.017771       87360
 setup_precond                           0.872789        4440
 overl                                   0.827969       23270
 overl1                                  0.682757       13852
 rspher_all                              0.473000          14
 brmix                                   0.451271          33
 fft_gq                                  0.439661          33
 inisym                                  0.356910           1
 fordep                                  0.293626           1
 broyd                                   0.221123          33
 densta                                  0.211392          38
 depsum                                  0.184285          33
 forhar                                  0.140884           2
 fewald                                  0.086556          69
 forloc                                  0.070821           1
 rsp                                     0.059874          69
 chggra                                  0.047199           1
 stufak                                  0.045678           1
 pothar                                  0.038994          35
 setg0                                   0.034222          35
 brget                                   0.025619        2931
 truncate_high_frequency_w1              0.018794       18292
 strkin                                  0.015433           1
 brsav                                   0.011682         699
 brpre                                   0.008291          66
 rcp                                     0.007614          69
 strelo                                  0.002278           1
 strehar                                 0.002269           1
 posmap                                  0.001860           2
 vectorpot                               0.000682          34
 brgrid                                  0.000483           1
 crpa_reader                             0.000246           1
 set_rsgf_all                            0.000085          35
 potlok_metagga                          0.000084          34
 set_dd_magatom                          0.000052          35
 rotate_active_occupied_orbital          0.000017           1
 redis_pw_over_bands                     0.000001           1
 ---------------------------------------------------------------
 
Profiling took   3.997393  2.166200  0.010839  0.010123 seconds
Profiling took   4.397406 seconds
