 vasp.6.3.2 27Jun22 (build Jan 03 2024 23:05:41) complex                        
  
 executed on           IFC15_impi date 2024.07.15  00:07:37
 running  512 mpi-ranks, with    1 threads/rank
 distrk:  each k-point on   64 cores,    8 groups
 distr:  one band on NCORE=  16 cores,    4 groups


--------------------------------------------------------------------------------------------------------


 INCAR:
   ENCUT = 600.00
   EDIFF = 1.00e-06
   EDIFFG = -0.01
   IBRION = 2
   ALGO = Normal
   ISMEAR = 0
   SIGMA = 0.05
   LCHARG = .FALSE.
   LWAVE = .FALSE.
   LREAL = Auto
   NELM = 2000
   NSW = 5000
   NCORE = 16
   KPAR = 8
   ISPIN = 2
   GGA = MK
   PARAM1 = 0.1234
   PARAM2 = 1.0
   AGGAC = 0.0
   LUSE_VDW = .TRUE.
   LASPH = .TRUE.
   LDIPOL = .TRUE.
   DIPOL = 0.5 0.5 0.5
   IDIPOL = 3

 POTCAR:    PAW_PBE Mo_sv 02Feb2006               
 POTCAR:    PAW_PBE S 06Sep2000                   
 -----------------------------------------------------------------------------
|                                                                             |
|           W    W    AA    RRRRR   N    N  II  N    N   GGGG   !!!           |
|           W    W   A  A   R    R  NN   N  II  NN   N  G    G  !!!           |
|           W    W  A    A  R    R  N N  N  II  N N  N  G       !!!           |
|           W WW W  AAAAAA  RRRRR   N  N N  II  N  N N  G  GGG   !            |
|           WW  WW  A    A  R   R   N   NN  II  N   NN  G    G                |
|           W    W  A    A  R    R  N    N  II  N    N   GGGG   !!!           |
|                                                                             |
|     You use a magnetic or noncollinear calculation, but did not specify     |
|     the initial magnetic moment with the MAGMOM tag. Note that a            |
|     default of 1 will be used for all atoms. This ferromagnetic setup       |
|     may break the symmetry of the crystal, in particular it may rule        |
|     out finding an antiferromagnetic solution. Thence, we recommend         |
|     setting the initial magnetic moment manually or verifying carefully     |
|     that this magnetic setup is desired.                                    |
|                                                                             |
 -----------------------------------------------------------------------------

 -----------------------------------------------------------------------------
|                                                                             |
|               ----> ADVICE to this user running VASP <----                  |
|                                                                             |
|     You have switched on vdW-DFT.                                           |
|     This routine was written and supplied by Jiri Klimes. We recommend      |
|     that you carefully read and cite the following publications:            |
|       J. Klimes, D.R. Bowler, A. Michelides                                 |
|          J. Phys.: Cond Matt. 22 022201 (2010)                              |
|       J. Klimes, D.R. Bowler, A. Michelides                                 |
|          Phys. Rev. B. 83, 195131 (2011)                                    |
|     and references therein.                                                 |
|                                                                             |
 -----------------------------------------------------------------------------

 POTCAR:    PAW_PBE Mo_sv 02Feb2006               
   SHA256 =  2731df97e41766cc617548c5a8267718fdef1f509ac6bafa01e745abea2bdfaa Mo_sv/POTCAR          
   COPYR  = (c) Copyright 02Feb2006 Georg Kresse                                                    
   COPYR  = This file is part of the software VASP. Any use, copying, and all other rights are regul
   COPYR  = If you do not have a valid VASP license, you may not use, copy or distribute this file. 
   VRHFIN =Mo: 4p5s4d                                                                               
   LEXCH  = PE                                                                                      
   EATOM  =  1862.2866 eV,  136.8742 Ry                                                             
                                                                                                    
   TITEL  = PAW_PBE Mo_sv 02Feb2006                                                                 
   LULTRA =        F    use ultrasoft PP ?                                                          
   IUNSCR =        1    unscreen: 0-lin 1-nonlin 2-no                                               
   RPACOR =    2.200    partial core radius                                                         
   POMASS =   95.940; ZVAL   =   14.000    mass and valenz                                          
   RCORE  =    2.500    outmost cutoff radius                                                       
   RWIGS  =    2.750; RWIGS  =    1.455    wigner-seitz radius (au A)                               
   ENMAX  =  242.676; ENMIN  =  182.007 eV                                                          
   ICORE  =        3    local potential                                                             
   LCOR   =        T    correct aug charges                                                         
   LPAW   =        T    paw PP                                                                      
   EAUG   =  446.014                                                                                
   DEXC   =    0.000                                                                                
   RMAX   =    2.563    core radius for proj-oper                                                   
   RAUG   =    1.300    factor for augmentation sphere                                              
   RDEP   =    2.641    radius for radial grids                                                     
   RDEPT  =    2.031    core radius for aug-charge                                                  
                                                                                                    
   Atomic configuration                                                                             
   11 entries                                                                                       
     n  l   j            E        occ.                                                              
     1  0  0.50    -19819.0341   2.0000                                                             
     2  0  0.50     -2799.0127   2.0000                                                             
     2  1  1.50     -2502.0276   6.0000                                                             
     3  0  0.50      -476.4449   2.0000                                                             
     3  1  1.50      -379.1496   6.0000                                                             
     3  2  2.50      -220.9367  10.0000                                                             
     4  0  0.50       -64.3378   2.0000                                                             
     5  0  0.50        -4.0862   1.0000                                                             
     4  1  1.50       -38.4773   6.0000                                                             
     4  2  2.50        -3.7535   5.0000                                                             
     4  3  2.50        -1.3606   0.0000                                                             
   Description                                                                                      
     l       E           TYP  RCUT    TYP  RCUT                                                     
     0    -64.3377829     23  2.100                                                                 
     0     -4.0861640     23  2.400                                                                 
     1    -38.4772993     23  2.100                                                                 
     1     13.6058260     23  2.100                                                                 
     2     -3.7534941     23  2.400                                                                 
     2     -5.1140767     23  2.400                                                                 
     3     -4.0817478     23  2.500                                                                 
  local pseudopotential read in
  partial core-charges read in
  partial kinetic energy density read in
  atomic valenz-charges read in
  non local Contribution for L=           0  read in
    real space projection operators read in
  non local Contribution for L=           0  read in
    real space projection operators read in
  non local Contribution for L=           1  read in
    real space projection operators read in
  non local Contribution for L=           1  read in
    real space projection operators read in
  non local Contribution for L=           2  read in
    real space projection operators read in
  non local Contribution for L=           2  read in
    real space projection operators read in
    PAW grid and wavefunctions read in
 
   number of l-projection  operators is LMAX  =           6
   number of lm-projection operators is LMMAX =          18
 
 POTCAR:    PAW_PBE S 06Sep2000                   
   SHA256 =  0fc7481fb0695f01bdc6462160264c5c84044ae9ec85a907d398b887a2bc3132 S/POTCAR              
   COPYR  = (c) Copyright 06Sep2000 Georg Kresse                                                    
   COPYR  = This file is part of the software VASP. Any use, copying, and all other rights are regul
   COPYR  = If you do not have a valid VASP license, you may not use, copy or distribute this file. 
   VRHFIN =S : s2p4                                                                                 
   LEXCH  = PE                                                                                      
   EATOM  =   276.8230 eV,   20.3459 Ry                                                             
                                                                                                    
   TITEL  = PAW_PBE S 06Sep2000                                                                     
   LULTRA =        F    use ultrasoft PP ?                                                          
   IUNSCR =        1    unscreen: 0-lin 1-nonlin 2-no                                               
   RPACOR =    1.500    partial core radius                                                         
   POMASS =   32.066; ZVAL   =    6.000    mass and valenz                                          
   RCORE  =    1.900    outmost cutoff radius                                                       
   RWIGS  =    2.200; RWIGS  =    1.164    wigner-seitz radius (au A)                               
   ENMAX  =  258.689; ENMIN  =  194.016 eV                                                          
   ICORE  =        2    local potential                                                             
   LCOR   =        T    correct aug charges                                                         
   LPAW   =        T    paw PP                                                                      
   EAUG   =  335.092                                                                                
   DEXC   =    0.000                                                                                
   RMAX   =    1.942    core radius for proj-oper                                                   
   RAUG   =    1.300    factor for augmentation sphere                                              
   RDEP   =    1.954    radius for radial grids                                                     
   RDEPT  =    1.744    core radius for aug-charge                                                  
                                                                                                    
   Atomic configuration                                                                             
    6 entries                                                                                       
     n  l   j            E        occ.                                                              
     1  0  0.50     -2405.8406   2.0000                                                             
     2  0  0.50      -211.7007   2.0000                                                             
     2  1  1.50      -156.4958   6.0000                                                             
     3  0  0.50       -17.2562   2.0000                                                             
     3  1  0.50        -7.0085   4.0000                                                             
     3  2  1.50        -6.8029   0.0000                                                             
   Description                                                                                      
     l       E           TYP  RCUT    TYP  RCUT                                                     
     0    -17.2561641     23  1.900                                                                 
     0    -15.8743224     23  1.900                                                                 
     1     -7.0085400     23  1.900                                                                 
     1     -2.7779785     23  1.900                                                                 
     2     -6.8029130     23  1.900                                                                 
  local pseudopotential read in
  partial core-charges read in
  partial kinetic energy density read in
  atomic valenz-charges read in
  non local Contribution for L=           0  read in
    real space projection operators read in
  non local Contribution for L=           0  read in
    real space projection operators read in
  non local Contribution for L=           1  read in
    real space projection operators read in
  non local Contribution for L=           1  read in
    real space projection operators read in
    PAW grid and wavefunctions read in
 
   number of l-projection  operators is LMAX  =           4
   number of lm-projection operators is LMMAX =           8
 
 Optimization of the real space projectors (new method)

 maximal supplied QI-value         = 15.12
 optimisation between [QCUT,QGAM] = [ 12.55, 25.10] = [ 44.09,176.36] Ry 
 Optimized for a Real-space Cutoff    1.47 Angstroem

   l    n(q)    QCUT    max X(q) W(low)/X(q) W(high)/X(q)  e(spline) 
   0     11    12.548     3.559    0.18E-04    0.60E-05    0.19E-06
   0     11    12.548    20.730    0.37E-04    0.13E-04    0.98E-07
   1     11    12.548     3.279    0.80E-06    0.70E-06    0.27E-07
   1     11    12.548     4.693    0.72E-04    0.11E-03    0.38E-06
   2     10    12.548    67.616    0.34E-03    0.45E-03    0.54E-06
   2     10    12.548    62.420    0.34E-03    0.45E-03    0.54E-06
 Optimization of the real space projectors (new method)

 maximal supplied QI-value         = 19.84
 optimisation between [QCUT,QGAM] = [ 12.50, 25.00] = [ 43.76,175.03] Ry 
 Optimized for a Real-space Cutoff    1.06 Angstroem

   l    n(q)    QCUT    max X(q) W(low)/X(q) W(high)/X(q)  e(spline) 
   0      8    12.501   187.594    0.26E-03    0.17E-03    0.97E-07
   0      8    12.501   164.243    0.26E-03    0.17E-03    0.96E-07
   1      7    12.501    67.533    0.50E-03    0.61E-03    0.91E-07
   1      7    12.501    50.729    0.48E-03    0.60E-03    0.90E-07
 -----------------------------------------------------------------------------
|                                                                             |
|               ----> ADVICE to this user running VASP <----                  |
|                                                                             |
|     You enforced a specific xc type in the INCAR file but a different       |
|     type was found in the POTCAR file.                                      |
|     I HOPE YOU KNOW WHAT YOU ARE DOING!                                     |
|                                                                             |
 -----------------------------------------------------------------------------

  PAW_PBE Mo_sv 02Feb2006               :
 energy of atom  1       EATOM=-1862.2866
 kinetic energy error for atom=    0.0041 (will be added to EATOM!!)
  PAW_PBE S 06Sep2000                   :
 energy of atom  2       EATOM= -276.8230
 kinetic energy error for atom=    0.0009 (will be added to EATOM!!)
 
 
 POSCAR: Mo  S
  positions in direct lattice
  velocities in cartesian coordinates
 exchange correlation table for  LEXCH =       43
   RHO(1)=    0.500       N(1)  =     2000
   RHO(2)=  100.500       N(2)  =     4000

 VTST: version 4.1, (05/19/21)

 CHAIN: initializing optimizer
 
 OPT: Using VASP Conjugate-Gradient optimizer
 CHAIN: Read ICHAIN            0
 
 POSCAR: Mo  S
  positions in direct lattice
  velocities in cartesian coordinates
 


--------------------------------------------------------------------------------------------------------


 ion  position               nearest neighbor table
   1  0.133  0.067  0.500- 159 2.41 144 2.41 138 2.41 162 2.41 147 2.41 141 2.41  62 3.16  20 3.16
                            49 3.16  71 3.16  72 3.16  67 3.16
   2  0.667  0.733  0.670- 194 2.41 106 2.41 117 2.41 197 2.41 108 2.41 114 2.41  32 3.16   8 3.16
                            37 3.16  64 3.16  55 3.16  42 3.16
   3  0.267  0.933  0.670- 216 2.41 140 2.41 155 2.41 143 2.41 219 2.41 149 2.41  74 3.16   9 3.16
                            51 3.16  28 3.16  50 3.16  25 3.16
   4  0.267  0.933  0.330- 218 2.41 142 2.41 148 2.41 215 2.41 139 2.41 146 2.41  75 3.16  10 3.16
                            52 3.16  70 3.16  29 3.16  24 3.16
   5  0.333  0.867  0.500- 214 2.41 198 2.41 208 2.41 217 2.41 136 2.41 211 2.41  30 3.16  23 3.16
                            12 3.16  71 3.16  72 3.16  53 3.16
   6  0.733  0.867  0.500- 110 2.41  89 2.41 119 2.41  76 2.41 116 2.41 100 2.41  67 3.16  49 3.16
                            46 3.16  22 3.16  30 3.16  34 3.16
   7  0.667  0.933  0.330- 105 2.41 202 2.41  94 2.41 107 2.41 199 2.41  97 2.41  29 3.16  11 3.16
                            33 3.16  26 3.16  63 3.16  16 3.16
   8  0.667  0.933  0.670- 106 2.41 200 2.41  96 2.41 134 2.41 108 2.41  93 2.41  28 3.16   2 3.16
                            32 3.16  27 3.16  64 3.16  17 3.16
   9  0.267  0.733  0.670- 157 2.41 216 2.41 210 2.41 137 2.41 219 2.41 213 2.41  51 3.16   3 3.16
                            56 3.16  28 3.16  13 3.16  32 3.16
  10  0.267  0.733  0.330- 145 2.41 218 2.41 212 2.41 215 2.41 158 2.41 209 2.41  52 3.16   4 3.16
                            57 3.16  29 3.16  14 3.16  33 3.16
  11  0.667  0.733  0.330- 196 2.41 105 2.41 115 2.41 193 2.41 107 2.41 118 2.41  33 3.16   7 3.16
                            38 3.16  63 3.16  41 3.16  69 3.16
  12  0.333  0.667  0.500- 192 2.41 179 2.41 208 2.41 205 2.41 195 2.41 211 2.41  34 3.16  15 3.16
                            30 3.16  59 3.16  53 3.16   5 3.16
  13  0.267  0.533  0.670- 181 2.41 173 2.41 210 2.41 207 2.41 176 2.41 213 2.41  56 3.16  18 3.16
                            60 3.16   9 3.16  37 3.16  32 3.16
  14  0.267  0.533  0.330- 206 2.41 175 2.41 212 2.41 180 2.41 209 2.41 172 2.41  57 3.16  19 3.16
                            61 3.16  10 3.16  38 3.16  33 3.16
  15  0.333  0.467  0.500- 179 2.41 186 2.41 150 2.41 205 2.41 189 2.41 153 2.41  39 3.16  12 3.16
                            34 3.16  20 3.16  59 3.16  62 3.16
  16  0.867  0.133  0.330-  90 2.41  94 2.41 124 2.41 132 2.41  97 2.41 102 2.41  63 3.16  66 3.16
                            26 3.16  47 3.16   7 3.16  61 3.16
  17  0.867  0.133  0.670- 104 2.41  96 2.41  88 2.41  91 2.41  93 2.41 122 2.41  64 3.16  65 3.16
                            27 3.16  48 3.16   8 3.16  60 3.16
  18  0.267  0.333  0.670- 167 2.41 181 2.41 152 2.41 170 2.41 207 2.41 178 2.41  60 3.16  13 3.16
                            65 3.16  37 3.16  43 3.16  50 3.16
  19  0.267  0.333  0.330- 169 2.41 206 2.41 154 2.41 180 2.41 166 2.41 151 2.41  61 3.16  14 3.16
                            66 3.16  38 3.16  44 3.16  70 3.16
  20  0.333  0.267  0.500- 203 2.41 144 2.41 150 2.41 183 2.41 147 2.41 153 2.41  45 3.16  71 3.16
                            39 3.16   1 3.16  62 3.16  15 3.16
  21  0.933  0.267  0.500- 123 2.41 131 2.41 165 2.41  81 2.41  80 2.41 168 2.41  31 3.16  49 3.16
                            22 3.16  62 3.16  73 3.16  59 3.16
  22  0.733  0.067  0.500- 101 2.41 131 2.41 110 2.41  95 2.41  80 2.41  76 2.41  49 3.16  31 3.16
                            21 3.16   6 3.16  23 3.16  30 3.16
  23  0.533  0.067  0.500- 220 2.41 101 2.41 198 2.41 223 2.41  95 2.41 136 2.41  71 3.16  45 3.16
                             5 3.16  31 3.16  30 3.16  22 3.16
  24  0.467  0.133  0.330- 204 2.41 148 2.41 184 2.41 221 2.41 146 2.41 201 2.41  26 3.16  35 3.16
                            29 3.16  44 3.16  70 3.16   4 3.16
  25  0.467  0.133  0.670- 222 2.41 155 2.41 182 2.41 224 2.41 149 2.41 185 2.41  27 3.16  36 3.16
                            28 3.16  43 3.16  50 3.16   3 3.16
  26  0.667  0.133  0.330-  94 2.41 204 2.41  84 2.41  97 2.41  78 2.41 221 2.41  24 3.16  29 3.16
                             7 3.16  16 3.16  35 3.16  47 3.16
  27  0.667  0.133  0.670-  96 2.41 222 2.41  79 2.41  93 2.41 224 2.41  85 2.41  25 3.16  28 3.16
                             8 3.16  17 3.16  36 3.16  48 3.16
  28  0.467  0.933  0.670- 200 2.41 216 2.41 222 2.41 134 2.41 219 2.41 224 2.41   8 3.16  32 3.16
                            27 3.16   9 3.16   3 3.16  25 3.16
  29  0.467  0.933  0.330- 202 2.41 218 2.41 204 2.41 199 2.41 215 2.41 221 2.41   7 3.16  33 3.16
                            26 3.16  10 3.16   4 3.16  24 3.16
  30  0.533  0.867  0.500- 198 2.41 110 2.41 192 2.41 136 2.41 195 2.41  76 2.41   5 3.16  12 3.16
                             6 3.16  23 3.16  34 3.16  22 3.16
  31  0.733  0.267  0.500- 123 2.41 101 2.41  77 2.41  81 2.41  95 2.41  87 2.41  21 3.16  22 3.16
                            73 3.16  23 3.16  45 3.16  40 3.16
  32  0.467  0.733  0.670- 194 2.41 210 2.41 200 2.41 197 2.41 213 2.41 134 2.41   2 3.16  28 3.16
                             8 3.16   9 3.16  37 3.16  13 3.16
  33  0.467  0.733  0.330- 196 2.41 212 2.41 202 2.41 193 2.41 209 2.41 199 2.41  11 3.16  29 3.16
                             7 3.16  10 3.16  38 3.16  14 3.16
  34  0.533  0.667  0.500- 192 2.41 119 2.41 186 2.41 195 2.41 116 2.41 189 2.41  12 3.16  39 3.16
                            15 3.16  30 3.16  46 3.16   6 3.16
  35  0.667  0.333  0.330- 184 2.41 127 2.41  84 2.41 130 2.41 201 2.41  78 2.41  44 3.16  41 3.16
                            24 3.16  68 3.16  47 3.16  26 3.16
  36  0.667  0.333  0.670- 182 2.41 129 2.41  79 2.41 185 2.41 126 2.41  85 2.41  43 3.16  42 3.16
                            25 3.16  58 3.16  48 3.16  27 3.16
  37  0.467  0.533  0.670- 188 2.41 181 2.41 194 2.41 191 2.41 207 2.41 197 2.41  42 3.16  43 3.16
                             2 3.16  18 3.16  13 3.16  32 3.16
  38  0.467  0.533  0.330- 190 2.41 206 2.41 196 2.41 135 2.41 180 2.41 193 2.41  41 3.16  44 3.16
                            11 3.16  19 3.16  14 3.16  33 3.16
  39  0.533  0.467  0.500- 186 2.41 133 2.41 203 2.41 189 2.41 183 2.41 128 2.41  15 3.16  34 3.16
                            20 3.16  46 3.16  45 3.16  40 3.16
  40  0.733  0.467  0.500- 133 2.41 109 2.41  77 2.41 128 2.41  87 2.41 113 2.41  73 3.16  46 3.16
                            54 3.16  39 3.16  31 3.16  45 3.16
  41  0.667  0.533  0.330- 127 2.41 190 2.41 115 2.41 130 2.41 135 2.41 118 2.41  38 3.16  35 3.16
                            44 3.16  11 3.16  68 3.16  69 3.16
  42  0.667  0.533  0.670- 129 2.41 188 2.41 117 2.41 126 2.41 191 2.41 114 2.41  37 3.16  36 3.16
                            43 3.16   2 3.16  58 3.16  55 3.16
  43  0.467  0.333  0.670- 182 2.41 152 2.41 188 2.41 185 2.41 178 2.41 191 2.41  36 3.16  37 3.16
                            42 3.16  25 3.16  18 3.16  50 3.16
  44  0.467  0.333  0.330- 184 2.41 154 2.41 190 2.41 201 2.41 135 2.41 151 2.41  35 3.16  38 3.16
                            41 3.16  24 3.16  19 3.16  70 3.16
  45  0.533  0.267  0.500- 203 2.41  77 2.41 220 2.41 183 2.41  87 2.41 223 2.41  20 3.16  23 3.16
                            71 3.16  39 3.16  31 3.16  40 3.16
  46  0.733  0.667  0.500- 125 2.41 133 2.41 119 2.41 128 2.41  86 2.41 116 2.41  54 3.16  40 3.16
                            67 3.16  39 3.16   6 3.16  34 3.16
  47  0.867  0.333  0.330- 124 2.41  84 2.41 120 2.41 102 2.41  78 2.41 111 2.41  68 3.16  57 3.16
                            16 3.16  61 3.16  35 3.16  26 3.16
  48  0.867  0.333  0.670-  88 2.41  79 2.41 112 2.41  85 2.41 122 2.41 121 2.41  58 3.16  56 3.16
                            17 3.16  36 3.16  60 3.16  27 3.16
  49  0.933  0.067  0.500- 131 2.41 159 2.41  89 2.41  80 2.41 162 2.41 100 2.41  22 3.16  21 3.16
                             6 3.16  62 3.16   1 3.16  67 3.16
  50  0.267  0.133  0.670- 155 2.41 161 2.41 152 2.41 149 2.41 164 2.41 178 2.41  65 3.16  74 3.16
                            25 3.16   3 3.16  18 3.16  43 3.16
  51  0.067  0.733  0.670- 157 2.41 140 2.41  92 2.41 137 2.41 143 2.41  82 2.41   9 3.16  74 3.16
                             3 3.16  56 3.16  55 3.16  58 3.16
  52  0.067  0.733  0.330- 145 2.41 142 2.41  83 2.41 158 2.41 139 2.41 103 2.41  10 3.16  75 3.16
                             4 3.16  69 3.16  57 3.16  68 3.16
  53  0.133  0.667  0.500- 177 2.41 208 2.41 171 2.41 156 2.41 174 2.41 211 2.41  59 3.16  73 3.16
                            12 3.16  72 3.16  54 3.16   5 3.16
  54  0.933  0.667  0.500- 125 2.41 109 2.41 177 2.41  86 2.41 113 2.41 156 2.41  46 3.16  73 3.16
                            40 3.16  67 3.16  53 3.16  72 3.16
  55  0.867  0.733  0.670-  92 2.41 117 2.41  99 2.41 114 2.41  82 2.41 225 2.41  64 3.16  74 3.16
                            58 3.16   2 3.16  51 3.16  42 3.16
  56  0.067  0.533  0.670- 173 2.41 157 2.41 112 2.41 176 2.41 137 2.41 121 2.41  13 3.16  60 3.16
                             9 3.16  48 3.16  58 3.16  51 3.16
  57  0.067  0.533  0.330- 175 2.41 145 2.41 120 2.41 172 2.41 158 2.41 111 2.41  14 3.16  61 3.16
                            10 3.16  47 3.16  52 3.16  68 3.16
  58  0.867  0.533  0.670- 112 2.41 129 2.41  92 2.41 121 2.41 126 2.41  82 2.41  48 3.16  36 3.16
                            42 3.16  55 3.16  56 3.16  51 3.16
  59  0.133  0.467  0.500- 171 2.41 179 2.41 165 2.41 174 2.41 168 2.41 205 2.41  53 3.16  12 3.16
                            15 3.16  62 3.16  73 3.16  21 3.16
  60  0.067  0.333  0.670- 167 2.41 173 2.41  88 2.41 170 2.41 176 2.41 122 2.41  18 3.16  56 3.16
                            13 3.16  48 3.16  65 3.16  17 3.16
  61  0.067  0.333  0.330- 169 2.41 175 2.41 124 2.41 166 2.41 172 2.41 102 2.41  19 3.16  57 3.16
                            14 3.16  47 3.16  66 3.16  16 3.16
  62  0.133  0.267  0.500- 165 2.41 150 2.41 159 2.41 168 2.41 153 2.41 162 2.41   1 3.16  49 3.16
                            21 3.16  20 3.16  59 3.16  15 3.16
  63  0.867  0.933  0.330- 187 2.41 105 2.41  90 2.41  98 2.41 107 2.41 132 2.41  69 3.16  11 3.16
                            16 3.16   7 3.16  75 3.16  66 3.16
  64  0.867  0.933  0.670-  99 2.41 106 2.41 104 2.41 225 2.41 108 2.41  91 2.41  55 3.16   2 3.16
                            17 3.16   8 3.16  74 3.16  65 3.16
  65  0.067  0.133  0.670- 161 2.41 167 2.41 104 2.41 164 2.41 170 2.41  91 2.41  50 3.16  18 3.16
                            17 3.16  60 3.16  74 3.16  64 3.16
  66  0.067  0.133  0.330- 163 2.41 169 2.41  90 2.41 160 2.41 166 2.41 132 2.41  70 3.16  19 3.16
                            61 3.16  16 3.16  75 3.16  63 3.16
  67  0.933  0.867  0.500-  89 2.41 125 2.41 138 2.41 100 2.41  86 2.41 141 2.41   6 3.16  46 3.16
                            49 3.16  54 3.16  72 3.16   1 3.16
  68  0.867  0.533  0.330- 120 2.41 127 2.41  83 2.41 111 2.41 103 2.41 130 2.41  47 3.16  35 3.16
                            41 3.16  57 3.16  69 3.16  52 3.16
  69  0.867  0.733  0.330-  83 2.41 115 2.41 187 2.41 103 2.41 118 2.41  98 2.41  63 3.16  75 3.16
                            11 3.16  68 3.16  52 3.16  41 3.16
  70  0.267  0.133  0.330- 148 2.41 163 2.41 154 2.41 146 2.41 160 2.41 151 2.41  66 3.16  75 3.16
                            24 3.16   4 3.16  19 3.16  44 3.16
  71  0.333  0.067  0.500- 144 2.41 220 2.41 214 2.41 147 2.41 223 2.41 217 2.41  23 3.16  20 3.16
                            45 3.16   5 3.16   1 3.16  72 3.16
  72  0.133  0.867  0.500- 138 2.41 214 2.41 177 2.41 141 2.41 156 2.41 217 2.41  53 3.16  67 3.16
                             1 3.16   5 3.16  54 3.16  71 3.16
  73  0.933  0.467  0.500- 109 2.41 123 2.41 171 2.41 113 2.41  81 2.41 174 2.41  40 3.16  54 3.16
                            31 3.16  53 3.16  21 3.16  59 3.16
  74  0.067  0.933  0.670- 140 2.41  99 2.41 161 2.41 143 2.41 225 2.41 164 2.41   3 3.16  51 3.16
                            50 3.16  55 3.16  64 3.16  65 3.16
  75  0.067  0.933  0.330- 142 2.41 163 2.41 187 2.41 139 2.41  98 2.41 160 2.41   4 3.16  52 3.16
                            70 3.16  69 3.16  63 3.16  66 3.16
  76  0.667  0.933  0.457-   6 2.41  30 2.41  22 2.41
  77  0.667  0.333  0.543-  45 2.41  40 2.41  31 2.41
  78  0.733  0.267  0.373-  26 2.41  47 2.41  35 2.41
  79  0.733  0.267  0.713-  48 2.41  27 2.41  36 2.41
  80  0.867  0.133  0.457-  49 2.41  22 2.41  21 2.41
  81  0.867  0.333  0.457-  21 2.41  31 2.41  73 2.41
  82  0.933  0.667  0.627-  55 2.41  58 2.41  51 2.41
  83  0.933  0.667  0.287-  69 2.41  68 2.41  52 2.41
  84  0.733  0.267  0.287-  47 2.41  26 2.41  35 2.41
  85  0.733  0.267  0.627-  48 2.41  27 2.41  36 2.41
  86  0.867  0.733  0.457-  54 2.41  46 2.41  67 2.41
  87  0.667  0.333  0.457-  40 2.41  45 2.41  31 2.41
  88  0.933  0.267  0.713-  48 2.41  17 2.41  60 2.41
  89  0.867  0.933  0.543-  67 2.41   6 2.41  49 2.41
  90  0.933  0.067  0.287-  16 2.41  63 2.41  66 2.41
  91  0.933  0.067  0.627-  17 2.41  65 2.41  64 2.41
  92  0.933  0.667  0.713-  55 2.41  58 2.41  51 2.41
  93  0.733  0.067  0.627-  17 2.41  27 2.41   8 2.41
  94  0.733  0.067  0.287-  26 2.41  16 2.41   7 2.41
  95  0.667  0.133  0.457-  22 2.41  23 2.41  31 2.41
  96  0.733  0.067  0.713-  27 2.41  17 2.41   8 2.41
  97  0.733  0.067  0.373-  26 2.41  16 2.41   7 2.41
  98  0.933  0.867  0.373-  63 2.41  69 2.41  75 2.41
  99  0.933  0.867  0.713-  64 2.41  55 2.41  74 2.41
 100  0.867  0.933  0.457-  67 2.41   6 2.41  49 2.41
 101  0.667  0.133  0.543-  22 2.41  23 2.41  31 2.41
 102  0.933  0.267  0.373-  47 2.41  16 2.41  61 2.41
 103  0.933  0.667  0.373-  69 2.41  68 2.41  52 2.41
 104  0.933  0.067  0.713-  17 2.41  65 2.41  64 2.41
 105  0.733  0.867  0.287-   7 2.41  63 2.41  11 2.41
 106  0.733  0.867  0.713-   8 2.41  64 2.41   2 2.41
 107  0.733  0.867  0.373-   7 2.41  11 2.41  63 2.41
 108  0.733  0.867  0.627-   8 2.41  64 2.41   2 2.41
 109  0.867  0.533  0.543-  73 2.41  40 2.41  54 2.41
 110  0.667  0.933  0.543-   6 2.41  30 2.41  22 2.41
 111  0.933  0.467  0.373-  68 2.41  47 2.41  57 2.41
 112  0.933  0.467  0.713-  58 2.41  48 2.41  56 2.41
 113  0.867  0.533  0.457-  73 2.41  54 2.41  40 2.41
 114  0.733  0.667  0.627-  55 2.41  42 2.41   2 2.41
 115  0.733  0.667  0.287-  69 2.41  41 2.41  11 2.41
 116  0.667  0.733  0.457-   6 2.41  34 2.41  46 2.41
 117  0.733  0.667  0.713-  55 2.41  42 2.41   2 2.41
 118  0.733  0.667  0.373-  41 2.41  69 2.41  11 2.41
 119  0.667  0.733  0.543-  34 2.41   6 2.41  46 2.41
 120  0.933  0.467  0.287-  68 2.41  47 2.41  57 2.41
 121  0.933  0.467  0.627-  58 2.41  48 2.41  56 2.41
 122  0.933  0.267  0.627-  48 2.41  17 2.41  60 2.41
 123  0.867  0.333  0.543-  21 2.41  31 2.41  73 2.41
 124  0.933  0.267  0.287-  47 2.41  16 2.41  61 2.41
 125  0.867  0.733  0.543-  54 2.41  46 2.41  67 2.41
 126  0.733  0.467  0.627-  42 2.41  58 2.41  36 2.41
 127  0.733  0.467  0.287-  41 2.41  68 2.41  35 2.41
 128  0.667  0.533  0.457-  40 2.41  39 2.41  46 2.41
 129  0.733  0.467  0.713-  42 2.41  58 2.41  36 2.41
 130  0.733  0.467  0.373-  41 2.41  35 2.41  68 2.41
 131  0.867  0.133  0.543-  49 2.41  22 2.41  21 2.41
 132  0.933  0.067  0.373-  16 2.41  66 2.41  63 2.41
 133  0.667  0.533  0.543-  40 2.41  39 2.41  46 2.41
 134  0.533  0.867  0.627-  28 2.41   8 2.41  32 2.41
 135  0.533  0.467  0.373-  38 2.41  41 2.41  44 2.41
 136  0.467  0.933  0.457-  30 2.41   5 2.41  23 2.41
 137  0.133  0.667  0.627-   9 2.41  51 2.41  56 2.41
 138  0.067  0.933  0.543-  72 2.41  67 2.41   1 2.41
 139  0.133  0.867  0.373-  75 2.41  52 2.41   4 2.41
 140  0.133  0.867  0.713-  74 2.41   3 2.41  51 2.41
 141  0.067  0.933  0.457-  72 2.41  67 2.41   1 2.41
 142  0.133  0.867  0.287-  75 2.41   4 2.41  52 2.41
 143  0.133  0.867  0.627-  74 2.41   3 2.41  51 2.41
 144  0.267  0.133  0.543-  71 2.41   1 2.41  20 2.41
 145  0.133  0.667  0.287-  52 2.41  10 2.41  57 2.41
 146  0.333  0.067  0.373-  70 2.41  24 2.41   4 2.41
 147  0.267  0.133  0.457-  71 2.41  20 2.41   1 2.41
 148  0.333  0.067  0.287-  70 2.41  24 2.41   4 2.41
 149  0.333  0.067  0.627-  25 2.41  50 2.41   3 2.41
 150  0.267  0.333  0.543-  62 2.41  15 2.41  20 2.41
 151  0.333  0.267  0.373-  44 2.41  70 2.41  19 2.41
 152  0.333  0.267  0.713-  43 2.41  50 2.41  18 2.41
 153  0.267  0.333  0.457-  15 2.41  62 2.41  20 2.41
 154  0.333  0.267  0.287-  44 2.41  70 2.41  19 2.41
 155  0.333  0.067  0.713-  50 2.41  25 2.41   3 2.41
 156  0.067  0.733  0.457-  53 2.41  72 2.41  54 2.41
 157  0.133  0.667  0.713-  51 2.41   9 2.41  56 2.41
 158  0.133  0.667  0.373-  52 2.41  10 2.41  57 2.41
 159  0.067  0.133  0.543-   1 2.41  62 2.41  49 2.41
 160  0.133  0.067  0.373-  66 2.41  70 2.41  75 2.41
 161  0.133  0.067  0.713-  65 2.41  50 2.41  74 2.41
 162  0.067  0.133  0.457-   1 2.41  62 2.41  49 2.41
 163  0.133  0.067  0.287-  66 2.41  70 2.41  75 2.41
 164  0.133  0.067  0.627-  65 2.41  50 2.41  74 2.41
 165  0.067  0.333  0.543-  62 2.41  59 2.41  21 2.41
 166  0.133  0.267  0.373-  61 2.41  19 2.41  66 2.41
 167  0.133  0.267  0.713-  60 2.41  18 2.41  65 2.41
 168  0.067  0.333  0.457-  62 2.41  59 2.41  21 2.41
 169  0.133  0.267  0.287-  61 2.41  19 2.41  66 2.41
 170  0.133  0.267  0.627-  18 2.41  60 2.41  65 2.41
 171  0.067  0.533  0.543-  59 2.41  53 2.41  73 2.41
 172  0.133  0.467  0.373-  57 2.41  14 2.41  61 2.41
 173  0.133  0.467  0.713-  56 2.41  13 2.41  60 2.41
 174  0.067  0.533  0.457-  59 2.41  53 2.41  73 2.41
 175  0.133  0.467  0.287-  57 2.41  14 2.41  61 2.41
 176  0.133  0.467  0.627-  56 2.41  13 2.41  60 2.41
 177  0.067  0.733  0.543-  53 2.41  72 2.41  54 2.41
 178  0.333  0.267  0.627-  43 2.41  50 2.41  18 2.41
 179  0.267  0.533  0.543-  15 2.41  59 2.41  12 2.41
 180  0.333  0.467  0.373-  14 2.41  19 2.41  38 2.41
 181  0.333  0.467  0.713-  13 2.41  37 2.41  18 2.41
 182  0.533  0.267  0.713-  43 2.41  36 2.41  25 2.41
 183  0.467  0.333  0.457-  45 2.41  39 2.41  20 2.41
 184  0.533  0.267  0.287-  44 2.41  35 2.41  24 2.41
 185  0.533  0.267  0.627-  36 2.41  43 2.41  25 2.41
 186  0.467  0.533  0.543-  39 2.41  15 2.41  34 2.41
 187  0.933  0.867  0.287-  63 2.41  69 2.41  75 2.41
 188  0.533  0.467  0.713-  37 2.41  42 2.41  43 2.41
 189  0.467  0.533  0.457-  39 2.41  34 2.41  15 2.41
 190  0.533  0.467  0.287-  38 2.41  41 2.41  44 2.41
 191  0.533  0.467  0.627-  37 2.41  42 2.41  43 2.41
 192  0.467  0.733  0.543-  34 2.41  12 2.41  30 2.41
 193  0.533  0.667  0.373-  33 2.41  11 2.41  38 2.41
 194  0.533  0.667  0.713-  32 2.41   2 2.41  37 2.41
 195  0.467  0.733  0.457-  34 2.41  30 2.41  12 2.41
 196  0.533  0.667  0.287-  33 2.41  11 2.41  38 2.41
 197  0.533  0.667  0.627-   2 2.41  32 2.41  37 2.41
 198  0.467  0.933  0.543-  30 2.41   5 2.41  23 2.41
 199  0.533  0.867  0.373-  29 2.41   7 2.41  33 2.41
 200  0.533  0.867  0.713-  28 2.41   8 2.41  32 2.41
 201  0.533  0.267  0.373-  44 2.41  35 2.41  24 2.41
 202  0.533  0.867  0.287-  29 2.41   7 2.41  33 2.41
 203  0.467  0.333  0.543-  45 2.41  20 2.41  39 2.41
 204  0.533  0.067  0.287-  24 2.41  26 2.41  29 2.41
 205  0.267  0.533  0.457-  15 2.41  12 2.41  59 2.41
 206  0.333  0.467  0.287-  14 2.41  38 2.41  19 2.41
 207  0.333  0.467  0.627-  13 2.41  37 2.41  18 2.41
 208  0.267  0.733  0.543-  53 2.41   5 2.41  12 2.41
 209  0.333  0.667  0.373-  14 2.41  33 2.41  10 2.41
 210  0.333  0.667  0.713-  32 2.41  13 2.41   9 2.41
 211  0.267  0.733  0.457-   5 2.41  53 2.41  12 2.41
 212  0.333  0.667  0.287-  33 2.41  14 2.41  10 2.41
 213  0.333  0.667  0.627-  32 2.41  13 2.41   9 2.41
 214  0.267  0.933  0.543-   5 2.41  72 2.41  71 2.41
 215  0.333  0.867  0.373-   4 2.41  10 2.41  29 2.41
 216  0.333  0.867  0.713-   3 2.41  28 2.41   9 2.41
 217  0.267  0.933  0.457-   5 2.41  72 2.41  71 2.41
 218  0.333  0.867  0.287-   4 2.41  29 2.41  10 2.41
 219  0.333  0.867  0.627-   3 2.41  28 2.41   9 2.41
 220  0.467  0.133  0.543-  23 2.41  71 2.41  45 2.41
 221  0.533  0.067  0.373-  24 2.41  26 2.41  29 2.41
 222  0.533  0.067  0.713-  25 2.41  27 2.41  28 2.41
 223  0.467  0.133  0.457-  23 2.41  45 2.41  71 2.41
 224  0.533  0.067  0.627-  25 2.41  27 2.41  28 2.41
 225  0.933  0.867  0.627-  64 2.41  55 2.41  74 2.41
 
  LATTYP: Found a hexagonal cell.
 ALAT       =    15.8227970706
 C/A-ratio  =     2.3015724012
  
  Lattice vectors:
  
 A1 = (   7.9113985353, -13.7029442220,   0.0000000000)
 A2 = (   7.9113985353,  13.7029442220,   0.0000000000)
 A3 = (   0.0000000000,   0.0000000000,  36.4173130480)


Analysis of symmetry for initial positions (statically):
=====================================================================
 Subroutine PRICEL returns following result:
 
  LATTYP: Found a hexagonal cell.
 ALAT       =     3.1645594141
 C/A-ratio  =    11.5078620062
  
  Lattice vectors:
  
 A1 = (   1.5822797071,  -2.7405888444,   0.0000000000)
 A2 = (   1.5822797071,   2.7405888444,   0.0000000000)
 A3 = (   0.0000000000,   0.0000000000,  36.4173130480)
 
  25 primitive cells build up your supercell.
 

 Routine SETGRP: Setting up the symmetry group for a 
 hexagonal supercell.


 Subroutine GETGRP returns: Found  6 space group operations
 (whereof  6 operations were pure point group operations)
 out of a pool of 24 trial point group operations.


The static configuration has the point symmetry C_3v.


Analysis of symmetry for dynamics (positions and initial velocities):
=====================================================================
 Subroutine PRICEL returns following result:
 
  LATTYP: Found a hexagonal cell.
 ALAT       =     3.1645594141
 C/A-ratio  =    11.5078620062
  
  Lattice vectors:
  
 A1 = (   1.5822797071,  -2.7405888444,   0.0000000000)
 A2 = (   1.5822797071,   2.7405888444,   0.0000000000)
 A3 = (   0.0000000000,   0.0000000000,  36.4173130480)
 
  25 primitive cells build up your supercell.
 

 Routine SETGRP: Setting up the symmetry group for a 
 hexagonal supercell.


 Subroutine GETGRP returns: Found  6 space group operations
 (whereof  6 operations were pure point group operations)
 out of a pool of 24 trial point group operations.


The dynamic configuration has the point symmetry C_3v.


Analysis of structural, dynamic, and magnetic symmetry:
=====================================================================
 Subroutine PRICEL returns following result:
 
  LATTYP: Found a hexagonal cell.
 ALAT       =     3.1645594141
 C/A-ratio  =    11.5078620062
  
  Lattice vectors:
  
 A1 = (   1.5822797071,  -2.7405888444,   0.0000000000)
 A2 = (   1.5822797071,   2.7405888444,   0.0000000000)
 A3 = (   0.0000000000,   0.0000000000,  36.4173130480)
 
  25 primitive cells build up your supercell.
 

 Routine SETGRP: Setting up the symmetry group for a 
 hexagonal supercell.


 Subroutine GETGRP returns: Found  6 space group operations
 (whereof  6 operations were pure point group operations)
 out of a pool of 24 trial point group operations.


The overall configuration has the point symmetry C_3v.


 Subroutine INISYM returns: Found  6 space group operations
 (whereof  6 operations are pure point group operations),
 and found    25 'primitive' translations


----------------------------------------------------------------------------------------

                                     Primitive cell                                     

  volume of cell :     315.8385

  direct lattice vectors                    reciprocal lattice vectors
     1.582279707 -2.740588844  0.000000000     0.315999755 -0.182442544  0.000000000
     1.582279707  2.740588844  0.000000000     0.315999755  0.182442544  0.000000000
     0.000000000  0.000000000 36.417313048     0.000000000  0.000000000  0.027459467

  length of vectors
     3.164559414  3.164559414 36.417313048     0.364885087  0.364885087  0.027459467

  position of ions in fractional coordinates (direct lattice)
     0.666666667  0.333333333  0.499919651
     0.333333333  0.666666667  0.669980428
     0.333333333  0.666666667  0.330093415
     0.333333333  0.666666667  0.456836807
     0.333333333  0.666666667  0.542998703
     0.666666667  0.333333333  0.373190999
     0.666666667  0.333333333  0.713032787
     0.666666667  0.333333333  0.626865035
     0.666666667  0.333333333  0.287054067

  ion indices of the primitive-cell ions
   primitive index   ion index
                 1           1
                 2          65
                 3          66
                 4         162
                 5         159
                 6         160
                 7         161
                 8         164
                 9         163

----------------------------------------------------------------------------------------

 
 
 KPOINTS: K-Points                                

Automatic generation of k-mesh.
 Grid dimensions read from file:
 generate k-points for:    3    3    1

 Generating k-lattice:

  Cartesian coordinates                     Fractional coordinates (reciprocal lattice)
     0.021066650 -0.012162836  0.000000000     0.333333333  0.000000000  0.000000000
     0.021066650  0.012162836  0.000000000    -0.000000000  0.333333333  0.000000000
     0.000000000  0.000000000  0.027459467     0.000000000  0.000000000  1.000000000

  Length of vectors
     0.024325672  0.024325672  0.027459467

  Shift w.r.t. Gamma in fractional coordinates (k-lattice)
     0.000000000  0.000000000  0.000000000

 
 Subroutine IBZKPT returns following result:
 ===========================================
 
 Found      3 irreducible k-points:
 
 Following reciprocal coordinates:
            Coordinates               Weight
  0.000000  0.000000  0.000000      1.000000
  0.333333  0.000000  0.000000      6.000000
  0.333333  0.333333  0.000000      2.000000
 
 Following cartesian coordinates:
            Coordinates               Weight
  0.000000  0.000000  0.000000      1.000000
  0.021067 -0.012163  0.000000      6.000000
  0.042133 -0.000000  0.000000      2.000000
 


--------------------------------------------------------------------------------------------------------




 Dimension of arrays:
   k-points           NKPTS =      3   k-points in BZ     NKDIM =      3   number of bands    NBANDS=   1284
   number of dos      NEDOS =    301   number of ions     NIONS =    225
   non local maximal  LDIM  =      6   non local SUM 2l+1 LMDIM =     18
   total plane-waves  NPLWV = ******
   max r-space proj   IRMAX =   3534   max aug-charges    IRDMAX=  11632
   dimension x,y,z NGX =    96 NGY =   96 NGZ =  224
   dimension x,y,z NGXF=   192 NGYF=  192 NGZF=  448
   support grid    NGXF=   192 NGYF=  192 NGZF=  448
   ions per type =              75 150
   NGX,Y,Z   is equivalent  to a cutoff of  10.09, 10.09, 10.23 a.u.
   NGXF,Y,Z  is equivalent  to a cutoff of  20.17, 20.17, 20.45 a.u.

 SYSTEM =  unknown system                          
 POSCAR =  Mo  S                                   

 Startparameter for this run:
   NWRITE =      2    write-flag & timer
   PREC   = normal    normal or accurate (medium, high low for compatibility)
   ISTART =      0    job   : 0-new  1-cont  2-samecut
   ICHARG =      2    charge: 1-file 2-atom 10-const
   ISPIN  =      2    spin polarized calculation?
   LNONCOLLINEAR =      F non collinear calculations
   LSORBIT =      F    spin-orbit coupling
   INIWAV =      1    electr: 0-lowe 1-rand  2-diag
   LASPH  =      T    aspherical Exc in radial PAW
 Electronic Relaxation 1
   ENCUT  =  600.0 eV  44.10 Ry    6.64 a.u.  31.60 31.60 72.73*2*pi/ulx,y,z
   ENINI  =  600.0     initial cutoff
   ENAUG  =  446.0 eV  augmentation charge cutoff
   NELM   =   2000;   NELMIN=  2; NELMDL=  0     # of ELM steps 
   EDIFF  = 0.1E-05   stopping-criterion for ELM
   LREAL  =      T    real-space projection
   NLSPLINE    = F    spline interpolate recip. space projectors
   LCOMPAT=      F    compatible to vasp.4.4
   GGA_COMPAT  = T    GGA compatible to vasp.4.4-vasp.4.6
   LMAXPAW     = -100 max onsite density
   LMAXMIX     =    2 max onsite mixed and CHGCAR
   VOSKOWN=      0    Vosko Wilk Nusair interpolation
   ROPT   =   -0.00050  -0.00050
 Ionic relaxation
   EDIFFG = -.1E-01   stopping-criterion for IOM
   NSW    =   5000    number of steps for IOM
   NBLOCK =      1;   KBLOCK =   5000    inner block; outer block 
   IBRION =      2    ionic relax: 0-MD 1-quasi-New 2-CG
   NFREE  =      1    steps in history (QN), initial steepest desc. (CG)
   ISIF   =      2    stress and relaxation
   IWAVPR =     11    prediction:  0-non 1-charg 2-wave 3-comb
   ISYM   =      2    0-nonsym 1-usesym 2-fastsym
   LCORR  =      T    Harris-Foulkes like correction to forces

   POTIM  = 0.5000    time-step for ionic-motion
   TEIN   =    0.0    initial temperature
   TEBEG  =    0.0;   TEEND  =   0.0 temperature during run
   SMASS  =  -3.00    Nose mass-parameter (am)
   estimated Nose-frequenzy (Omega)   =  0.10E-29 period in steps = 0.13E+47 mass=  -0.572E-26a.u.
   SCALEE = 1.0000    scale energy and forces
   NPACO  =    256;   APACO  = 10.0  distance and # of slots for P.C.
   PSTRESS=    0.0 pullay stress

  Mass of Ions in am
   POMASS =  95.94 32.07
  Ionic Valenz
   ZVAL   =  14.00  6.00
  Atomic Wigner-Seitz radii
   RWIGS  =  -1.00 -1.00
  virtual crystal weights 
   VCA    =   1.00  1.00
   NELECT =    1950.0000    total number of electrons
   NUPDOWN=      -1.0000    fix difference up-down

 DOS related values:
   EMIN   =  10.00;   EMAX   =-10.00  energy-range for DOS
   EFERMI =   0.00
   ISMEAR =     0;   SIGMA  =   0.05  broadening in eV -4-tet -1-fermi 0-gaus

 Electronic relaxation 2 (details)
   IALGO  =     38    algorithm
   LDIAG  =      T    sub-space diagonalisation (order eigenvalues)
   LSUBROT=      F    optimize rotation matrix (better conditioning)
   TURBO    =      0    0=normal 1=particle mesh
   IRESTART =      0    0=no restart 2=restart with 2 vectors
   NREBOOT  =      0    no. of reboots
   NMIN     =      0    reboot dimension
   EREF     =   0.00    reference energy to select bands
   IMIX   =      4    mixing-type and parameters
     AMIX     =   0.40;   BMIX     =  1.00
     AMIX_MAG =   1.60;   BMIX_MAG =  1.00
     AMIN     =   0.10
     WC   =   100.;   INIMIX=   1;  MIXPRE=   1;  MAXMIX= -45

 Intra band minimization:
   WEIMIN = 0.0010     energy-eigenvalue tresh-hold
   EBREAK =  0.19E-09  absolut break condition
   DEPER  =   0.30     relativ break condition  

   TIME   =   0.40     timestep for ELM

  volume/ion in A,a.u.               =      35.09       236.82
  Fermi-wavevector in a.u.,A,eV,Ry     =   1.027113  1.940961 14.353604  1.054960
  Thomas-Fermi vector in A             =   2.161040
 
 Write flags
   LWAVE        =      F    write WAVECAR
   LDOWNSAMPLE  =      F    k-point downsampling of WAVECAR
   LCHARG       =      F    write CHGCAR
   LVTOT        =      F    write LOCPOT, total local potential
   LVHAR        =      F    write LOCPOT, Hartree potential only
   LELF         =      F    write electronic localiz. function (ELF)
   LORBIT       =      0    0 simple, 1 ext, 2 COOP (PROOUT), +10 PAW based schemes


 Dipole corrections
   LMONO  =      F    monopole corrections only (constant potential shift)
   LDIPOL =      T    correct potential (dipole corrections)
   IDIPOL =      3    1-x, 2-y, 3-z, 4-all directions 
   EPSILON=  1.0000000 bulk dielectric constant

 Exchange correlation treatment:
   GGA     =    MK    GGA type
   LEXCH   =    43    internal setting for exchange type
   LIBXC   =     F    Libxc                    
   VOSKOWN =     0    Vosko Wilk Nusair interpolation
   LHFCALC =     F    Hartree Fock is set to
   LHFONE  =     F    Hartree Fock one center treatment
   AEXX    =    0.0000 exact exchange contribution

 vdW DFT:
   LUSE_VDW   =     T    switch on vdW DFT
   Zab_VDW    =-.8491    correlation parameter
   PARAM1     =0.1234
   PARAM2     =1.0000
   PARAM3     =0.0000
   -- rVV10 --
   BPARAM     = 6.3000
   CPARAM     = 0.0093

 Linear response parameters
   LEPSILON=     F    determine dielectric tensor
   LRPA    =     F    only Hartree local field effects (RPA)
   LNABLA  =     F    use nabla operator in PAW spheres
   LVEL    =     F    velocity operator in full k-point grid
   CSHIFT  =0.1000    complex shift for real part using Kramers Kronig
   OMEGAMAX=  -1.0    maximum frequency
   DEG_THRESHOLD= 0.2000000E-02 threshold for treating states as degnerate
   RTIME   =   -0.100 relaxation time in fs
  (WPLASMAI=    0.000 imaginary part of plasma frequency in eV, 0.658/RTIME)
   DFIELD  = 0.0000000 0.0000000 0.0000000 field for delta impulse in time
 
  Optional k-point grid parameters
   LKPOINTS_OPT  =     F    use optional k-point grid
   KPOINTS_OPT_MODE=     1    mode for optional k-point grid
 
 Orbital magnetization related:
   ORBITALMAG=     F  switch on orbital magnetization
   LCHIMAG   =     F  perturbation theory with respect to B field
   DQ        =  0.001000  dq finite difference perturbation B field
   LLRAUG    =     F  two centre corrections for induced B field



--------------------------------------------------------------------------------------------------------


 conjugate gradient relaxation of ions
 charge density and potential will be updated during run
 spin polarized calculation
 Variant of blocked Davidson
 Davidson routine will perform the subspace rotation
 perform sub-space diagonalisation
    after iterative eigenvector-optimisation
 modified Broyden-mixing scheme, WC =      100.0
 initial mixing is a Kerker type mixing with AMIX =  0.4000 and BMIX =      1.0000
 Hartree-type preconditioning will be used
 using additional bands          309
 real space projection scheme for non local part
 use partial core corrections
 calculate Harris-corrections to forces 
   (improved forces if not selfconsistent)
 use gradient corrections 
 use of overlap-Matrix (Vanderbilt PP)
 Gauss-broadening in eV      SIGMA  =   0.05


--------------------------------------------------------------------------------------------------------


  energy-cutoff  :      600.00
  volume of cell :     7895.96
      direct lattice vectors                 reciprocal lattice vectors
     7.911398535-13.702944222  0.000000000     0.063199951 -0.036488509  0.000000000
     7.911398535 13.702944222  0.000000000     0.063199951  0.036488509  0.000000000
     0.000000000  0.000000000 36.417313048     0.000000000  0.000000000  0.027459467

  length of vectors
    15.822797071 15.822797071 36.417313048     0.072977017  0.072977017  0.027459467


 
 k-points in units of 2pi/SCALE and weight: K-Points                                
   0.00000000  0.00000000  0.00000000       0.111
   0.02106665 -0.01216284  0.00000000       0.667
   0.04213330 -0.00000000  0.00000000       0.222
 
 k-points in reciprocal lattice and weights: K-Points                                
   0.00000000  0.00000000  0.00000000       0.111
   0.33333333  0.00000000  0.00000000       0.667
   0.33333333  0.33333333  0.00000000       0.222
 
 position of ions in fractional coordinates (direct lattice) 
   0.13333333  0.06666667  0.49991965
   0.66666667  0.73333333  0.66998043
   0.26666667  0.93333333  0.66998043
   0.26666667  0.93333333  0.33009342
   0.33333333  0.86666667  0.49991965
   0.73333333  0.86666667  0.49991965
   0.66666667  0.93333333  0.33009342
   0.66666667  0.93333333  0.66998043
   0.26666667  0.73333333  0.66998043
   0.26666667  0.73333333  0.33009342
   0.66666667  0.73333333  0.33009342
   0.33333333  0.66666667  0.49991965
   0.26666667  0.53333333  0.66998043
   0.26666667  0.53333333  0.33009342
   0.33333333  0.46666667  0.49991965
   0.86666667  0.13333333  0.33009342
   0.86666667  0.13333333  0.66998043
   0.26666667  0.33333333  0.66998043
   0.26666667  0.33333333  0.33009342
   0.33333333  0.26666667  0.49991965
   0.93333333  0.26666667  0.49991965
   0.73333333  0.06666667  0.49991965
   0.53333333  0.06666667  0.49991965
   0.46666667  0.13333333  0.33009342
   0.46666667  0.13333333  0.66998043
   0.66666667  0.13333333  0.33009342
   0.66666667  0.13333333  0.66998043
   0.46666667  0.93333333  0.66998043
   0.46666667  0.93333333  0.33009342
   0.53333333  0.86666667  0.49991965
   0.73333333  0.26666667  0.49991965
   0.46666667  0.73333333  0.66998043
   0.46666667  0.73333333  0.33009342
   0.53333333  0.66666667  0.49991965
   0.66666667  0.33333333  0.33009342
   0.66666667  0.33333333  0.66998043
   0.46666667  0.53333333  0.66998043
   0.46666667  0.53333333  0.33009342
   0.53333333  0.46666667  0.49991965
   0.73333333  0.46666667  0.49991965
   0.66666667  0.53333333  0.33009342
   0.66666667  0.53333333  0.66998043
   0.46666667  0.33333333  0.66998043
   0.46666667  0.33333333  0.33009342
   0.53333333  0.26666667  0.49991965
   0.73333333  0.66666667  0.49991965
   0.86666667  0.33333333  0.33009342
   0.86666667  0.33333333  0.66998043
   0.93333333  0.06666667  0.49991965
   0.26666667  0.13333333  0.66998043
   0.06666667  0.73333333  0.66998043
   0.06666667  0.73333333  0.33009342
   0.13333333  0.66666667  0.49991965
   0.93333333  0.66666667  0.49991965
   0.86666667  0.73333333  0.66998043
   0.06666667  0.53333333  0.66998043
   0.06666667  0.53333333  0.33009342
   0.86666667  0.53333333  0.66998043
   0.13333333  0.46666667  0.49991965
   0.06666667  0.33333333  0.66998043
   0.06666667  0.33333333  0.33009342
   0.13333333  0.26666667  0.49991965
   0.86666667  0.93333333  0.33009342
   0.86666667  0.93333333  0.66998043
   0.06666667  0.13333333  0.66998043
   0.06666667  0.13333333  0.33009342
   0.93333333  0.86666667  0.49991965
   0.86666667  0.53333333  0.33009342
   0.86666667  0.73333333  0.33009342
   0.26666667  0.13333333  0.33009342
   0.33333333  0.06666667  0.49991965
   0.13333333  0.86666667  0.49991965
   0.93333333  0.46666667  0.49991965
   0.06666667  0.93333333  0.66998043
   0.06666667  0.93333333  0.33009342
   0.66666667  0.93333333  0.45683681
   0.66666667  0.33333333  0.54299870
   0.73333333  0.26666667  0.37319100
   0.73333333  0.26666667  0.71303279
   0.86666667  0.13333333  0.45683681
   0.86666667  0.33333333  0.45683681
   0.93333333  0.66666667  0.62686503
   0.93333333  0.66666667  0.28705407
   0.73333333  0.26666667  0.28705407
   0.73333333  0.26666667  0.62686503
   0.86666667  0.73333333  0.45683681
   0.66666667  0.33333333  0.45683681
   0.93333333  0.26666667  0.71303279
   0.86666667  0.93333333  0.54299870
   0.93333333  0.06666667  0.28705407
   0.93333333  0.06666667  0.62686503
   0.93333333  0.66666667  0.71303279
   0.73333333  0.06666667  0.62686503
   0.73333333  0.06666667  0.28705407
   0.66666667  0.13333333  0.45683681
   0.73333333  0.06666667  0.71303279
   0.73333333  0.06666667  0.37319100
   0.93333333  0.86666667  0.37319100
   0.93333333  0.86666667  0.71303279
   0.86666667  0.93333333  0.45683681
   0.66666667  0.13333333  0.54299870
   0.93333333  0.26666667  0.37319100
   0.93333333  0.66666667  0.37319100
   0.93333333  0.06666667  0.71303279
   0.73333333  0.86666667  0.28705407
   0.73333333  0.86666667  0.71303279
   0.73333333  0.86666667  0.37319100
   0.73333333  0.86666667  0.62686503
   0.86666667  0.53333333  0.54299870
   0.66666667  0.93333333  0.54299870
   0.93333333  0.46666667  0.37319100
   0.93333333  0.46666667  0.71303279
   0.86666667  0.53333333  0.45683681
   0.73333333  0.66666667  0.62686503
   0.73333333  0.66666667  0.28705407
   0.66666667  0.73333333  0.45683681
   0.73333333  0.66666667  0.71303279
   0.73333333  0.66666667  0.37319100
   0.66666667  0.73333333  0.54299870
   0.93333333  0.46666667  0.28705407
   0.93333333  0.46666667  0.62686503
   0.93333333  0.26666667  0.62686503
   0.86666667  0.33333333  0.54299870
   0.93333333  0.26666667  0.28705407
   0.86666667  0.73333333  0.54299870
   0.73333333  0.46666667  0.62686503
   0.73333333  0.46666667  0.28705407
   0.66666667  0.53333333  0.45683681
   0.73333333  0.46666667  0.71303279
   0.73333333  0.46666667  0.37319100
   0.86666667  0.13333333  0.54299870
   0.93333333  0.06666667  0.37319100
   0.66666667  0.53333333  0.54299870
   0.53333333  0.86666667  0.62686503
   0.53333333  0.46666667  0.37319100
   0.46666667  0.93333333  0.45683681
   0.13333333  0.66666667  0.62686503
   0.06666667  0.93333333  0.54299870
   0.13333333  0.86666667  0.37319100
   0.13333333  0.86666667  0.71303279
   0.06666667  0.93333333  0.45683681
   0.13333333  0.86666667  0.28705407
   0.13333333  0.86666667  0.62686503
   0.26666667  0.13333333  0.54299870
   0.13333333  0.66666667  0.28705407
   0.33333333  0.06666667  0.37319100
   0.26666667  0.13333333  0.45683681
   0.33333333  0.06666667  0.28705407
   0.33333333  0.06666667  0.62686503
   0.26666667  0.33333333  0.54299870
   0.33333333  0.26666667  0.37319100
   0.33333333  0.26666667  0.71303279
   0.26666667  0.33333333  0.45683681
   0.33333333  0.26666667  0.28705407
   0.33333333  0.06666667  0.71303279
   0.06666667  0.73333333  0.45683681
   0.13333333  0.66666667  0.71303279
   0.13333333  0.66666667  0.37319100
   0.06666667  0.13333333  0.54299870
   0.13333333  0.06666667  0.37319100
   0.13333333  0.06666667  0.71303279
   0.06666667  0.13333333  0.45683681
   0.13333333  0.06666667  0.28705407
   0.13333333  0.06666667  0.62686503
   0.06666667  0.33333333  0.54299870
   0.13333333  0.26666667  0.37319100
   0.13333333  0.26666667  0.71303279
   0.06666667  0.33333333  0.45683681
   0.13333333  0.26666667  0.28705407
   0.13333333  0.26666667  0.62686503
   0.06666667  0.53333333  0.54299870
   0.13333333  0.46666667  0.37319100
   0.13333333  0.46666667  0.71303279
   0.06666667  0.53333333  0.45683681
   0.13333333  0.46666667  0.28705407
   0.13333333  0.46666667  0.62686503
   0.06666667  0.73333333  0.54299870
   0.33333333  0.26666667  0.62686503
   0.26666667  0.53333333  0.54299870
   0.33333333  0.46666667  0.37319100
   0.33333333  0.46666667  0.71303279
   0.53333333  0.26666667  0.71303279
   0.46666667  0.33333333  0.45683681
   0.53333333  0.26666667  0.28705407
   0.53333333  0.26666667  0.62686503
   0.46666667  0.53333333  0.54299870
   0.93333333  0.86666667  0.28705407
   0.53333333  0.46666667  0.71303279
   0.46666667  0.53333333  0.45683681
   0.53333333  0.46666667  0.28705407
   0.53333333  0.46666667  0.62686503
   0.46666667  0.73333333  0.54299870
   0.53333333  0.66666667  0.37319100
   0.53333333  0.66666667  0.71303279
   0.46666667  0.73333333  0.45683681
   0.53333333  0.66666667  0.28705407
   0.53333333  0.66666667  0.62686503
   0.46666667  0.93333333  0.54299870
   0.53333333  0.86666667  0.37319100
   0.53333333  0.86666667  0.71303279
   0.53333333  0.26666667  0.37319100
   0.53333333  0.86666667  0.28705407
   0.46666667  0.33333333  0.54299870
   0.53333333  0.06666667  0.28705407
   0.26666667  0.53333333  0.45683681
   0.33333333  0.46666667  0.28705407
   0.33333333  0.46666667  0.62686503
   0.26666667  0.73333333  0.54299870
   0.33333333  0.66666667  0.37319100
   0.33333333  0.66666667  0.71303279
   0.26666667  0.73333333  0.45683681
   0.33333333  0.66666667  0.28705407
   0.33333333  0.66666667  0.62686503
   0.26666667  0.93333333  0.54299870
   0.33333333  0.86666667  0.37319100
   0.33333333  0.86666667  0.71303279
   0.26666667  0.93333333  0.45683681
   0.33333333  0.86666667  0.28705407
   0.33333333  0.86666667  0.62686503
   0.46666667  0.13333333  0.54299870
   0.53333333  0.06666667  0.37319100
   0.53333333  0.06666667  0.71303279
   0.46666667  0.13333333  0.45683681
   0.53333333  0.06666667  0.62686503
   0.93333333  0.86666667  0.62686503
 
 position of ions in cartesian coordinates  (Angst):
   1.58227971 -0.91352961 18.20573045
  11.07595795  0.91352961 24.39888698
   9.49367824  9.13529615 24.39888698
   9.49367824  9.13529615 12.02111524
   9.49367824  7.30823692 18.20573045
  12.65823766  1.82705923 18.20573045
  12.65823766  3.65411846 12.02111524
  12.65823766  3.65411846 24.39888698
   7.91139854  6.39470730 24.39888698
   7.91139854  6.39470730 12.02111524
  11.07595795  0.91352961 12.02111524
   7.91139854  4.56764807 18.20573045
   6.32911883  3.65411846 24.39888698
   6.32911883  3.65411846 12.02111524
   6.32911883  1.82705923 18.20573045
   7.91139854-10.04882576 12.02111524
   7.91139854-10.04882576 24.39888698
   4.74683912  0.91352961 24.39888698
   4.74683912  0.91352961 12.02111524
   4.74683912 -0.91352961 18.20573045
   9.49367824 -9.13529615 18.20573045
   6.32911883 -9.13529615 18.20573045
   4.74683912 -6.39470730 18.20573045
   4.74683912 -4.56764807 12.02111524
   4.74683912 -4.56764807 24.39888698
   6.32911883 -7.30823692 12.02111524
   6.32911883 -7.30823692 24.39888698
  11.07595795  6.39470730 24.39888698
  11.07595795  6.39470730 12.02111524
  11.07595795  4.56764807 18.20573045
   7.91139854 -6.39470730 18.20573045
   9.49367824  3.65411846 24.39888698
   9.49367824  3.65411846 12.02111524
   9.49367824  1.82705923 18.20573045
   7.91139854 -4.56764807 12.02111524
   7.91139854 -4.56764807 24.39888698
   7.91139854  0.91352961 24.39888698
   7.91139854  0.91352961 12.02111524
   7.91139854 -0.91352961 18.20573045
   9.49367824 -3.65411846 18.20573045
   9.49367824 -1.82705923 12.02111524
   9.49367824 -1.82705923 24.39888698
   6.32911883 -1.82705923 24.39888698
   6.32911883 -1.82705923 12.02111524
   6.32911883 -3.65411846 18.20573045
  11.07595795 -0.91352961 18.20573045
   9.49367824 -7.30823692 12.02111524
   9.49367824 -7.30823692 24.39888698
   7.91139854-11.87588499 18.20573045
   3.16455941 -1.82705923 24.39888698
   6.32911883  9.13529615 24.39888698
   6.32911883  9.13529615 12.02111524
   6.32911883  7.30823692 18.20573045
  12.65823766 -3.65411846 18.20573045
  12.65823766 -1.82705923 24.39888698
   4.74683912  6.39470730 24.39888698
   4.74683912  6.39470730 12.02111524
  11.07595795 -4.56764807 24.39888698
   4.74683912  4.56764807 18.20573045
   3.16455941  3.65411846 24.39888698
   3.16455941  3.65411846 12.02111524
   3.16455941  1.82705923 18.20573045
  14.24051736  0.91352961 12.02111524
  14.24051736  0.91352961 24.39888698
   1.58227971  0.91352961 24.39888698
   1.58227971  0.91352961 12.02111524
  14.24051736 -0.91352961 18.20573045
  11.07595795 -4.56764807 12.02111524
  12.65823766 -1.82705923 12.02111524
   3.16455941 -1.82705923 12.02111524
   3.16455941 -3.65411846 18.20573045
   7.91139854 10.04882576 18.20573045
  11.07595795 -6.39470730 18.20573045
   7.91139854 11.87588499 24.39888698
   7.91139854 11.87588499 12.02111524
  12.65823766  3.65411846 16.63676902
   7.91139854 -4.56764807 19.77455374
   7.91139854 -6.39470730 13.59061342
   7.91139854 -6.39470730 25.96673822
   7.91139854-10.04882576 16.63676902
   9.49367824 -7.30823692 16.63676902
  12.65823766 -3.65411846 22.82874021
  12.65823766 -3.65411846 10.45373783
   7.91139854 -6.39470730 10.45373783
   7.91139854 -6.39470730 22.82874021
  12.65823766 -1.82705923 16.63676902
   7.91139854 -4.56764807 16.63676902
   9.49367824 -9.13529615 25.96673822
  14.24051736  0.91352961 19.77455374
   7.91139854-11.87588499 10.45373783
   7.91139854-11.87588499 22.82874021
  12.65823766 -3.65411846 25.96673822
   6.32911883 -9.13529615 22.82874021
   6.32911883 -9.13529615 10.45373783
   6.32911883 -7.30823692 16.63676902
   6.32911883 -9.13529615 25.96673822
   6.32911883 -9.13529615 13.59061342
  14.24051736 -0.91352961 13.59061342
  14.24051736 -0.91352961 25.96673822
  14.24051736  0.91352961 16.63676902
   6.32911883 -7.30823692 19.77455374
   9.49367824 -9.13529615 13.59061342
  12.65823766 -3.65411846 13.59061342
   7.91139854-11.87588499 25.96673822
  12.65823766  1.82705923 10.45373783
  12.65823766  1.82705923 25.96673822
  12.65823766  1.82705923 13.59061342
  12.65823766  1.82705923 22.82874021
  11.07595795 -4.56764807 19.77455374
  12.65823766  3.65411846 19.77455374
  11.07595795 -6.39470730 13.59061342
  11.07595795 -6.39470730 25.96673822
  11.07595795 -4.56764807 16.63676902
  11.07595795 -0.91352961 22.82874021
  11.07595795 -0.91352961 10.45373783
  11.07595795  0.91352961 16.63676902
  11.07595795 -0.91352961 25.96673822
  11.07595795 -0.91352961 13.59061342
  11.07595795  0.91352961 19.77455374
  11.07595795 -6.39470730 10.45373783
  11.07595795 -6.39470730 22.82874021
   9.49367824 -9.13529615 22.82874021
   9.49367824 -7.30823692 19.77455374
   9.49367824 -9.13529615 10.45373783
  12.65823766 -1.82705923 19.77455374
   9.49367824 -3.65411846 22.82874021
   9.49367824 -3.65411846 10.45373783
   9.49367824 -1.82705923 16.63676902
   9.49367824 -3.65411846 25.96673822
   9.49367824 -3.65411846 13.59061342
   7.91139854-10.04882576 19.77455374
   7.91139854-11.87588499 13.59061342
   9.49367824 -1.82705923 19.77455374
  11.07595795  4.56764807 22.82874021
   7.91139854 -0.91352961 13.59061342
  11.07595795  6.39470730 16.63676902
   6.32911883  7.30823692 22.82874021
   7.91139854 11.87588499 19.77455374
   7.91139854 10.04882576 13.59061342
   7.91139854 10.04882576 25.96673822
   7.91139854 11.87588499 16.63676902
   7.91139854 10.04882576 10.45373783
   7.91139854 10.04882576 22.82874021
   3.16455941 -1.82705923 19.77455374
   6.32911883  7.30823692 10.45373783
   3.16455941 -3.65411846 13.59061342
   3.16455941 -1.82705923 16.63676902
   3.16455941 -3.65411846 10.45373783
   3.16455941 -3.65411846 22.82874021
   4.74683912  0.91352961 19.77455374
   4.74683912 -0.91352961 13.59061342
   4.74683912 -0.91352961 25.96673822
   4.74683912  0.91352961 16.63676902
   4.74683912 -0.91352961 10.45373783
   3.16455941 -3.65411846 25.96673822
   6.32911883  9.13529615 16.63676902
   6.32911883  7.30823692 25.96673822
   6.32911883  7.30823692 13.59061342
   1.58227971  0.91352961 19.77455374
   1.58227971 -0.91352961 13.59061342
   1.58227971 -0.91352961 25.96673822
   1.58227971  0.91352961 16.63676902
   1.58227971 -0.91352961 10.45373783
   1.58227971 -0.91352961 22.82874021
   3.16455941  3.65411846 19.77455374
   3.16455941  1.82705923 13.59061342
   3.16455941  1.82705923 25.96673822
   3.16455941  3.65411846 16.63676902
   3.16455941  1.82705923 10.45373783
   3.16455941  1.82705923 22.82874021
   4.74683912  6.39470730 19.77455374
   4.74683912  4.56764807 13.59061342
   4.74683912  4.56764807 25.96673822
   4.74683912  6.39470730 16.63676902
   4.74683912  4.56764807 10.45373783
   4.74683912  4.56764807 22.82874021
   6.32911883  9.13529615 19.77455374
   4.74683912 -0.91352961 22.82874021
   6.32911883  3.65411846 19.77455374
   6.32911883  1.82705923 13.59061342
   6.32911883  1.82705923 25.96673822
   6.32911883 -3.65411846 25.96673822
   6.32911883 -1.82705923 16.63676902
   6.32911883 -3.65411846 10.45373783
   6.32911883 -3.65411846 22.82874021
   7.91139854  0.91352961 19.77455374
  14.24051736 -0.91352961 10.45373783
   7.91139854 -0.91352961 25.96673822
   7.91139854  0.91352961 16.63676902
   7.91139854 -0.91352961 10.45373783
   7.91139854 -0.91352961 22.82874021
   9.49367824  3.65411846 19.77455374
   9.49367824  1.82705923 13.59061342
   9.49367824  1.82705923 25.96673822
   9.49367824  3.65411846 16.63676902
   9.49367824  1.82705923 10.45373783
   9.49367824  1.82705923 22.82874021
  11.07595795  6.39470730 19.77455374
  11.07595795  4.56764807 13.59061342
  11.07595795  4.56764807 25.96673822
   6.32911883 -3.65411846 13.59061342
  11.07595795  4.56764807 10.45373783
   6.32911883 -1.82705923 19.77455374
   4.74683912 -6.39470730 10.45373783
   6.32911883  3.65411846 16.63676902
   6.32911883  1.82705923 10.45373783
   6.32911883  1.82705923 22.82874021
   7.91139854  6.39470730 19.77455374
   7.91139854  4.56764807 13.59061342
   7.91139854  4.56764807 25.96673822
   7.91139854  6.39470730 16.63676902
   7.91139854  4.56764807 10.45373783
   7.91139854  4.56764807 22.82874021
   9.49367824  9.13529615 19.77455374
   9.49367824  7.30823692 13.59061342
   9.49367824  7.30823692 25.96673822
   9.49367824  9.13529615 16.63676902
   9.49367824  7.30823692 10.45373783
   9.49367824  7.30823692 22.82874021
   4.74683912 -4.56764807 19.77455374
   4.74683912 -6.39470730 13.59061342
   4.74683912 -6.39470730 25.96673822
   4.74683912 -4.56764807 16.63676902
   4.74683912 -6.39470730 22.82874021
  14.24051736 -0.91352961 22.82874021
 


--------------------------------------------------------------------------------------------------------


 k-point   1 :   0.0000 0.0000 0.0000  plane waves:  263629
 k-point   2 :   0.3333 0.0000 0.0000  plane waves:  263559
 k-point   3 :   0.3333 0.3333 0.0000  plane waves:  263442

 maximum and minimum number of plane-waves per node :     16534    16396

 maximum number of plane-waves:    263629
 maximum index in each direction: 
   IXMAX=   31   IYMAX=   31   IZMAX=   72
   IXMIN=  -31   IYMIN=  -31   IZMIN=  -72


 real space projection operators:
  total allocation   :      47499.42 KBytes
  max/ min on nodes  :       2982.94       2958.91


 parallel 3D FFT for wavefunctions:
    minimum data exchange during FFTs selected (reduces bandwidth)
 parallel 3D FFT for charge:
    minimum data exchange during FFTs selected (reduces bandwidth)


 total amount of memory used by VASP MPI-rank0   604009. kBytes
=======================================================================

   base      :      30000. kBytes
   nonlr-proj:      17123. kBytes
   fftplans  :      12709. kBytes
   grid      :      31057. kBytes
   one-center:        466. kBytes
   wavefun   :     512654. kBytes
 
     INWAV:  cpu time      0.0001: real time      0.0001
 Broyden mixing: mesh for mixing (old mesh)
   NGX = 63   NGY = 63   NGZ =145
  (NGX  =192   NGY  =192   NGZ  =448)
  gives a total of 575505 points

 initial charge density was supplied:
 charge density of overlapping atoms calculated
 number of electron    1950.0000000 magnetization     225.0000000
 keeping initial charge density in first step


--------------------------------------------------------------------------------------------------------


 Maximum index for non-local projection operator          249
 Maximum index for augmentation-charges          555 (set IRDMAX)


--------------------------------------------------------------------------------------------------------


 First call to EWALD:  gamma=   0.089
 Maximum number of real-space cells 4x 4x 2
 Maximum number of reciprocal cells 2x 2x 5

    FEWALD:  cpu time      0.4301: real time      0.4300


--------------------------------------- Iteration      1(   1)  ---------------------------------------


vdW kernel read from vdw_kernel.bindat
  0.0000  0.2424  0.5071  0.7962  1.1119  1.4567  1.8333  2.2446  2.6937  3.1842
  3.7199  4.3049  4.9438  5.6415  6.4036  7.2358  8.1446  9.1372 10.2212 11.4050
 12.6979 14.1099 15.6519 17.3360 19.1751 21.1837 23.3773 25.7729 28.3892 31.2465
 34.3669 37.7748 41.4965 45.5611 50.0000
 
    POTLOK:  cpu time     11.5289: real time     11.5525
    SETDIJ:  cpu time      2.9148: real time      2.9167
     EDDAV:  cpu time    225.2464: real time    225.4720
       DOS:  cpu time      0.0538: real time      0.0538
    --------------------------------------------
      LOOP:  cpu time    239.7440: real time    239.9951

 eigenvalue-minimisations  : 18320
 total energy-change (2. order) : 0.1892992E+05  (-0.1093524E+06)
 number of electron    1950.0000000 magnetization     225.0000000
 augmentation part     1950.0000000 magnetization     225.0000000

 DIPCOR: dipole corrections for dipol
 direction  3 min pos     1,
 dipolmoment           0.000000      0.000000     -0.000001 electrons x Angstroem
 Tr[quadrupol]    -82148.917720

 energy correction for charged system         0.000000 eV
 dipol+quadrupol energy correction           -0.000000 eV
 added-field ion interaction         -0.000000 eV  (added to PSCEN)


 Free energy of the ion-electron system (eV)
  ---------------------------------------------------
  alpha Z        PSCENC =      3370.07317294
  Ewald energy   TEWEN  =   1121518.34844846
  -Hartree energ DENC   =  -1286083.86683908
  -exchange      EXHF   =         0.00000000
  -V(xc)+E(xc)   XCENC  =      6877.28635340
  PAW double counting   =    145060.30823122  -143096.48311103
  entropy T*S    EENTRO =        -0.11475662
  eigenvalues    EBANDS =    -10353.02184613
  atomic energy  EATOM  =    181637.39341292
  Solvation  Ediel_sol  =         0.00000000
  ---------------------------------------------------
  free energy    TOTEN  =     18929.92306607 eV

  energy without entropy =    18930.03782270  energy(sigma->0) =    18929.98044439


--------------------------------------------------------------------------------------------------------




--------------------------------------- Iteration      1(   2)  ---------------------------------------


     EDDAV:  cpu time    227.9089: real time    228.0912
       DOS:  cpu time      0.0622: real time      0.0622
    --------------------------------------------
      LOOP:  cpu time    227.9711: real time    228.1534

 eigenvalue-minimisations  : 18580
 total energy-change (2. order) :-0.1864999E+05  (-0.1800892E+05)
 number of electron    1950.0000000 magnetization     225.0000000
 augmentation part     1950.0000000 magnetization     225.0000000

 DIPCOR: dipole corrections for dipol
 direction  3 min pos     1,
 dipolmoment           0.000000      0.000000     -0.000001 electrons x Angstroem
 Tr[quadrupol]    -82148.917720

 energy correction for charged system         0.000000 eV
 dipol+quadrupol energy correction           -0.000000 eV
 added-field ion interaction         -0.000000 eV  (added to PSCEN)


 Free energy of the ion-electron system (eV)
  ---------------------------------------------------
  alpha Z        PSCENC =      3370.07317294
  Ewald energy   TEWEN  =   1121518.34844846
  -Hartree energ DENC   =  -1286083.86683908
  -exchange      EXHF   =         0.00000000
  -V(xc)+E(xc)   XCENC  =      6877.28635340
  PAW double counting   =    145060.30823122  -143096.48311103
  entropy T*S    EENTRO =        -0.01154515
  eigenvalues    EBANDS =    -29003.11088966
  atomic energy  EATOM  =    181637.39341292
  Solvation  Ediel_sol  =         0.00000000
  ---------------------------------------------------
  free energy    TOTEN  =       279.93723402 eV

  energy without entropy =      279.94877917  energy(sigma->0) =      279.94300659


--------------------------------------------------------------------------------------------------------




--------------------------------------- Iteration      1(   3)  ---------------------------------------


     EDDAV:  cpu time    215.5390: real time    215.6927
       DOS:  cpu time      0.0534: real time      0.0534
    --------------------------------------------
      LOOP:  cpu time    215.5923: real time    215.7460

 eigenvalue-minimisations  : 17832
 total energy-change (2. order) :-0.1495050E+04  (-0.1454011E+04)
 number of electron    1950.0000000 magnetization     225.0000000
 augmentation part     1950.0000000 magnetization     225.0000000

 DIPCOR: dipole corrections for dipol
 direction  3 min pos     1,
 dipolmoment           0.000000      0.000000     -0.000001 electrons x Angstroem
 Tr[quadrupol]    -82148.917720

 energy correction for charged system         0.000000 eV
 dipol+quadrupol energy correction           -0.000000 eV
 added-field ion interaction         -0.000000 eV  (added to PSCEN)


 Free energy of the ion-electron system (eV)
  ---------------------------------------------------
  alpha Z        PSCENC =      3370.07317294
  Ewald energy   TEWEN  =   1121518.34844846
  -Hartree energ DENC   =  -1286083.86683908
  -exchange      EXHF   =         0.00000000
  -V(xc)+E(xc)   XCENC  =      6877.28635340
  PAW double counting   =    145060.30823122  -143096.48311103
  entropy T*S    EENTRO =        -0.00000001
  eigenvalues    EBANDS =    -30498.17254497
  atomic energy  EATOM  =    181637.39341292
  Solvation  Ediel_sol  =         0.00000000
  ---------------------------------------------------
  free energy    TOTEN  =     -1215.11287615 eV

  energy without entropy =    -1215.11287614  energy(sigma->0) =    -1215.11287615


--------------------------------------------------------------------------------------------------------




--------------------------------------- Iteration      1(   4)  ---------------------------------------


     EDDAV:  cpu time    228.0059: real time    228.1780
       DOS:  cpu time      0.0091: real time      0.0091
    --------------------------------------------
      LOOP:  cpu time    228.0150: real time    228.1872

 eigenvalue-minimisations  : 19256
 total energy-change (2. order) :-0.6099137E+02  (-0.6005933E+02)
 number of electron    1950.0000000 magnetization     225.0000000
 augmentation part     1950.0000000 magnetization     225.0000000

 DIPCOR: dipole corrections for dipol
 direction  3 min pos     1,
 dipolmoment           0.000000      0.000000     -0.000001 electrons x Angstroem
 Tr[quadrupol]    -82148.917720

 energy correction for charged system         0.000000 eV
 dipol+quadrupol energy correction           -0.000000 eV
 added-field ion interaction         -0.000000 eV  (added to PSCEN)


 Free energy of the ion-electron system (eV)
  ---------------------------------------------------
  alpha Z        PSCENC =      3370.07317294
  Ewald energy   TEWEN  =   1121518.34844846
  -Hartree energ DENC   =  -1286083.86683908
  -exchange      EXHF   =         0.00000000
  -V(xc)+E(xc)   XCENC  =      6877.28635340
  PAW double counting   =    145060.30823122  -143096.48311103
  entropy T*S    EENTRO =        -0.00000001
  eigenvalues    EBANDS =    -30559.16391891
  atomic energy  EATOM  =    181637.39341292
  Solvation  Ediel_sol  =         0.00000000
  ---------------------------------------------------
  free energy    TOTEN  =     -1276.10425009 eV

  energy without entropy =    -1276.10425008  energy(sigma->0) =    -1276.10425009


--------------------------------------------------------------------------------------------------------




--------------------------------------- Iteration      1(   5)  ---------------------------------------


     EDDAV:  cpu time    225.7906: real time    225.9530
       DOS:  cpu time      0.0430: real time      0.0430
    CHARGE:  cpu time      6.9551: real time      6.9604
    MIXING:  cpu time      0.0704: real time      0.0704
    --------------------------------------------
      LOOP:  cpu time    232.8591: real time    233.0268

 eigenvalue-minimisations  : 19056
 total energy-change (2. order) :-0.1819171E+01  (-0.1804461E+01)
 number of electron    1950.0000174 magnetization     214.5934395
 augmentation part       27.8127696 magnetization     213.5284994

 DIPCOR: dipole corrections for dipol
 direction  3 min pos     1,
[...]
  282              fft3d_mpi                            32.103465                   5778   6
  283                fftbas_mpi                           32.077809                 5778   7
  284                  fftbas_plan_mpi                      32.059165               5778   8
  285                    dfftw_execute                        13.604689            17334   9
  286                    map_forward                          15.324320            11556   9
  287                      map_gather                            2.934984           5778  10
  288                      m_alltoallv_z                         5.322496           5778  10
  289                      map_scatter                           3.508508           5778  10
  290            rpromu                                9.688955                     1458   5
  291              crrexp_mul_wave                       3.205577                1300050   6
  292              rpromu_gemm                           3.264461                 328050   6
  293              m_sumb_d                              0.847243                   5778   6
  294          m_sumb_d                              0.341448                         10   4
  295        m_sumb_d                              0.021214                            7   3
  296        fft3d_mpi                             1.361621                           82   3
  297          fftbrc_mpi                            1.293197                         82   4
  298            fftbas_plan_mpi                       1.292935                       82   5
  299              dfftw_execute                         0.328804                    246   6
  300              map_forward                           0.371368                     80   6
  301                map_gather                            0.106838                   40   7
  302                m_alltoallv_z                         0.221199                   40   7
  303                map_scatter                           0.042456                   40   7
  304              map_backward                          0.541664                     84   6
  305                map_gather                            0.039039                   42   7
  306                m_alltoallv_z                         0.252779                   42   7
  307                map_scatter                           0.248987                   42   7
  308        forhar                                2.303534                            2   3
  309          m_sumb_d                              0.025416                          2   4
  310        strehar                               0.019192                            1   3
  311          m_sumb_d                              0.000339                          1   4
  312        chggra                                0.067507                            1   3
  313          fft3d_mpi                             0.046900                          3   4
  314            fftbrc_mpi                            0.044169                        3   5
  315              fftbas_plan_mpi                       0.044162                      3   6
  316                dfftw_execute                         0.011768                    9   7
  317                map_backward                          0.013063                    2   7
  318                  map_gather                            0.001183                  1   8
  319                  m_alltoallv_z                         0.004503                  1   8
  320                  map_scatter                           0.007343                  1   8
  321                map_forward                           0.017427                    4   7
  322                  map_gather                            0.008980                  2   8
  323                  m_alltoallv_z                         0.006305                  2   8
  324                  map_scatter                           0.002096                  2   8
  325          m_sumb_d                              0.000096                          2   4
  326          pothar                                0.004765                          1   4
  327            m_sumb_d                              0.000737                        1   5
  328        brmix                                 0.149145                            1   3
  329          m_sumb_d                              0.001447                          6   4
  330          brpre                                 0.000471                          2   4
  331          setg0                                 0.009339                          1   4
  332          broyd                                 0.100128                          1   4
  333            m_sumb_d                              0.006358                       41   5
  334            brget                                 0.017225                      213   5
  335            brsav                                 0.005623                       39   5
  336          m_bcast_z                             0.023841                          1   4
  337          m_bcast_d                             0.000209                          1   4
  338        m_bcast_d                             0.001152                            2   3
  339      potlok                               10.356319                              1   2
  340        fft3d_mpi                             1.379045                           86   3
  341          fftbrc_mpi                            1.303734                         86   4
  342            fftbas_plan_mpi                       1.303499                       86   5
  343              dfftw_execute                         0.332338                    258   6
  344              map_forward                           0.359684                     88   6
  345                map_gather                            0.131356                   46   7
  346                m_alltoallv_z                         0.179929                   46   7
  347                map_scatter                           0.047434                   46   7
  348              map_backward                          0.559240                     84   6
  349                map_gather                            0.038460                   42   7
  350                m_alltoallv_z                         0.252501                   42   7
  351                map_scatter                           0.267366                   42   7
  352        m_sumb_d                              0.001787                            8   3
  353        fewald                                0.001588                            2   3
  354          rsp                                   0.001453                          2   4
  355          rcp                                   0.000091                          2   4
  356        pothar                                0.003661                            1   3
  357          m_sumb_d                              0.001137                          1   4
  358        m_bcast_d                             0.004973                            2   3
  359      potlok_metagga                        0.000007                              1   2
  360      set_dd_magatom                        0.000001                              1   2
  361      set_dd_paw                            2.863857                              1   2
  362        set_rsgf_all                          0.000002                            1   3
  363        m_sumb_d                              2.863344                            8   3
  364      densta                                0.003489                              1   2
  365        m_sumb_d                              0.001360                           11   3
 
 Flat profile
 ============
 
             routine name                   CPU           calls
 ---------------------------------------------------------------
 ggemm                                3488.938412       49703
 orth1                                 859.223632      111517
 eddav                                 825.616600          39
 dfftw_execute                         539.667263      676677
 m_alltoallv_z                         390.943596      225701
 potlok                                322.758569          36
 total_time                            305.026569           1
 m_sumb_d                              244.298951      422550
 m_alltoall_d                          185.824050      545891
 lincom                                142.986207          80
 map_scatter                           141.569378      225701
 fftwav_mpi                            138.787569      148288
 map_gather                            137.538049      225701
 fftbas_plan_mpi                       119.985521      225559
 set_charge                            102.430919          35
 vhamil                                 98.627780       73949
 map_forward                            84.328869      299830
 crrexp_mul_work_add                    59.681008    16638525
 gemm                                   56.372898     8280900
 m_bcast_z                              54.959073       46852
 rpromu_gemm                            41.535660     5946750
 racc0mu                                35.861225       36804
 crrexp_mul_wave                        32.124484    12882825
 rpromu                                 26.905958       26430
 lapack                                 23.835042       37145
 eccp                                   21.264384       25038
 w1_copy                                20.843645      221847
 redis_pw                               19.654205      196969
 fftext_mpi                             15.603704       73949
 pw_charge                              15.020698       17082
 force_and_stress                        8.956028           1
 kinhamil                                6.956405       73949
 apply_precond                           5.930843       48911
 augmentation_charge                     4.346461          35
 setup_precond                           4.321751       25038
 overl                                   4.260756      122862
 fft3d_mpi                               3.781430      225559
 m_bcast_d                               3.751419       74403
 redis_proj                              3.381921      245882
 setdij_                                 3.215802          63
 forhar                                  2.278118           2
 overl1                                  2.064176       73949
 map_backward                            1.678149      151288
 forloc                                  1.123508           1
 hamiltmu                                1.065967       37145
 newband                                 0.975880       37223
 broyd                                   0.911539          35
 phaser                                  0.855564          91
 stufak                                  0.716389           1
 fftbas_mpi                              0.698540      222237
 brmix                                   0.567351          35
 choleski                                0.519543           2
 elmin                                   0.511201           1
 inisym                                  0.477925           1
 rspher_all                              0.460788          14
 racc0                                   0.460207         341
 raccmu_                                 0.447853       37145
 soft_charge                             0.423532          35
 setg0                                   0.381983          37
 rpro1                                   0.365635         263
 depsum                                  0.328001          35
 brget                                   0.276680        3528
 w1_projall                              0.161260       24587
 brsav                                   0.111749         776
 strnlr                                  0.106595           1
 pothar                                  0.102933          37
 densta                                  0.100220          40
 truncate_high_frequency_w1              0.094551       98987
 rsp                                     0.062448          73
 posmap                                  0.061581           2
 strkin                                  0.060277           1
 rpro_isp                                0.057865          13
 fornlr                                  0.041912           1
 orthch                                  0.028781           1
 set_dd_paw                              0.020486          37
 strehar                                 0.018853           1
 strelo                                  0.018619           1
 fft_gq                                  0.016198          35
 chggra                                  0.015745           1
 brpre                                   0.015351          70
 fftbrc_mpi                              0.009818        3322
 fewald                                  0.008319          73
 rcp                                     0.007828          73
 brgrid                                  0.002116           1
 vectorpot                               0.000567          36
 potlok_metagga                          0.000361          36
 fordep                                  0.000298           1
 crpa_reader                             0.000274           1
 set_rsgf_all                            0.000113          37
 proall                                  0.000063           1
 set_dd_magatom                          0.000058          37
 rotate_active_occupied_orbital          0.000018           1
 redis_pw_over_bands                     0.000000           1
 ---------------------------------------------------------------
  summed up times    8619.83051705360     
 
 Accumulative profile
 ====================
 
             routine name                   CPU           calls
 ---------------------------------------------------------------
 total_time                           8619.830517           1
 elmin                                8144.519697           1
 eddav                                7438.596277          39
 ggemm                                3488.938412       49703
 fft3d_mpi                            1420.200611      225559
 fftbas_plan_mpi                      1415.710824      225559
 fftbas_mpi                           1365.862478      222237
 fftwav_mpi                           1138.207034      148288
 orth1                                 859.223632      111517
 hamiltmu                              662.330477       37145
 map_forward                           584.564598      299830
 dfftw_execute                         539.667263      676677
 m_alltoallv_z                         390.943596      225701
 kinhamil                              389.950959       73949
 fftext_mpi                            382.994554       73949
 potlok                                373.746644          36
 m_sumb_d                              244.298951      422550
 set_charge                            242.510718          35
 newband                               229.776499       37223
 m_alltoall_d                          185.824050      545891
 raccmu_                               172.685771       37145
 map_backward                          171.493442      151288
 racc0mu                               169.295785       36804
 redis_pw                              146.854475      196969
 lincom                                142.986207          80
 map_scatter                           141.569378      225701
 map_gather                            137.538049      225701
 soft_charge                           129.123483          35
 rpromu                                112.173799       26430
 set_dd_paw                            105.763465          37
 w1_projall                             98.935286       24587
 vhamil                                 98.627780       73949
 force_and_stress                       90.237874           1
 rpro_isp                               69.166290          13
 redis_proj                             62.005701      245882
 crrexp_mul_work_add                    59.681008    16638525
 gemm                                   56.372898     8280900
 m_bcast_z                              54.959073       46852
 fftbrc_mpi                             50.556704        3322
 strnlr                                 48.706946           1
 rpromu_gemm                            41.535660     5946750
 crrexp_mul_wave                        32.124484    12882825
 eccp                                   25.521589       25038
 lapack                                 23.835042       37145
 w1_copy                                20.843645      221847
 fornlr                                 16.242289           1
 pw_charge                              15.020698       17082
 apply_precond                           5.930843       48911
 augmentation_charge                     5.803868          35
 orthch                                  5.659661           1
 proall                                  5.370650           1
 setup_precond                           4.949569       25038
 overl                                   4.260756      122862
 m_bcast_d                               3.751419       74403
 setdij_                                 3.482587          63
 brmix                                   2.961312          35
 forhar                                  2.303534           2
 overl1                                  2.064176       73949
 depsum                                  1.542799          35
 densta                                  1.542687          40
 broyd                                   1.450523          35
 forloc                                  1.127481           1
 racc0                                   0.877957         341
 phaser                                  0.855564          91
 stufak                                  0.716389           1
 rpro1                                   0.601188         263
 inisym                                  0.539506           1
 choleski                                0.519543           2
 fewald                                  0.493755          73
 rspher_all                              0.460788          14
 setg0                                   0.381983          37
 fft_gq                                  0.368128          35
 fordep                                  0.327180           1
 brget                                   0.276680        3528
 pothar                                  0.160795          37
 brsav                                   0.111749         776
 truncate_high_frequency_w1              0.094551       98987
 chggra                                  0.067507           1
 strkin                                  0.062829           1
 rsp                                     0.062448          73
 posmap                                  0.061581           2
 strelo                                  0.020239           1
 strehar                                 0.019192           1
 brpre                                   0.015351          70
 rcp                                     0.007828          73
 brgrid                                  0.002116           1
 vectorpot                               0.000567          36
 potlok_metagga                          0.000361          36
 crpa_reader                             0.000274           1
 set_rsgf_all                            0.000113          37
 set_dd_magatom                          0.000058          37
 rotate_active_occupied_orbital          0.000018           1
 redis_pw_over_bands                     0.000000           1
 ---------------------------------------------------------------
 
Profiling took  23.823316 14.302488  0.009114  0.008350 seconds
Profiling took  22.692627 seconds
