 vasp.6.3.2 27Jun22 (build Jan 03 2024 23:25:20) gamma-only                     
  
 executed on           IFC15_impi date 2024.07.14  23:40:45
 running   96 mpi-ranks, with    1 threads/rank
 distrk:  each k-point on   96 cores,    1 groups
 distr:  one band on NCORE=   4 cores,   24 groups


--------------------------------------------------------------------------------------------------------


 INCAR:
   ENCUT = 600.00
   EDIFF = 1.00e-06
   EDIFFG = -0.01
   IBRION = 2
   ALGO = Normal
   ISMEAR = 0
   SIGMA = 0.05
   LCHARG = .FALSE.
   LWAVE = .FALSE.
   LREAL = Auto
   NELM = 2000
   NSW = 5000
   NCORE = 4
   ISPIN = 2
   GGA = MK
   PARAM1 = 0.1234
   PARAM2 = 1.0
   AGGAC = 0.0
   LUSE_VDW = .TRUE.
   LASPH = .TRUE.

 POTCAR:    PAW_PBE C 08Apr2002                   
 POTCAR:    PAW_PBE H 15Jun2001                   
 POTCAR:    PAW_PBE N 08Apr2002                   
 -----------------------------------------------------------------------------
|                                                                             |
|           W    W    AA    RRRRR   N    N  II  N    N   GGGG   !!!           |
|           W    W   A  A   R    R  NN   N  II  NN   N  G    G  !!!           |
|           W    W  A    A  R    R  N N  N  II  N N  N  G       !!!           |
|           W WW W  AAAAAA  RRRRR   N  N N  II  N  N N  G  GGG   !            |
|           WW  WW  A    A  R   R   N   NN  II  N   NN  G    G                |
|           W    W  A    A  R    R  N    N  II  N    N   GGGG   !!!           |
|                                                                             |
|     You use a magnetic or noncollinear calculation, but did not specify     |
|     the initial magnetic moment with the MAGMOM tag. Note that a            |
|     default of 1 will be used for all atoms. This ferromagnetic setup       |
|     may break the symmetry of the crystal, in particular it may rule        |
|     out finding an antiferromagnetic solution. Thence, we recommend         |
|     setting the initial magnetic moment manually or verifying carefully     |
|     that this magnetic setup is desired.                                    |
|                                                                             |
 -----------------------------------------------------------------------------

 -----------------------------------------------------------------------------
|                                                                             |
|               ----> ADVICE to this user running VASP <----                  |
|                                                                             |
|     You have switched on vdW-DFT.                                           |
|     This routine was written and supplied by Jiri Klimes. We recommend      |
|     that you carefully read and cite the following publications:            |
|       J. Klimes, D.R. Bowler, A. Michelides                                 |
|          J. Phys.: Cond Matt. 22 022201 (2010)                              |
|       J. Klimes, D.R. Bowler, A. Michelides                                 |
|          Phys. Rev. B. 83, 195131 (2011)                                    |
|     and references therein.                                                 |
|                                                                             |
 -----------------------------------------------------------------------------

 POTCAR:    PAW_PBE C 08Apr2002                   
   SHA256 =  253f7b50bb8d59471dbedb8285d89021f4a42ed1a2c5d38a03a736e69125dd95 C/POTCAR              
   COPYR  = (c) Copyright 08Apr2002 Georg Kresse                                                    
   COPYR  = This file is part of the software VASP. Any use, copying, and all other rights are regul
   COPYR  = If you do not have a valid VASP license, you may not use, copy or distribute this file. 
   VRHFIN =C: s2p2                                                                                  
   LEXCH  = PE                                                                                      
   EATOM  =   147.1560 eV,   10.8157 Ry                                                             
                                                                                                    
   TITEL  = PAW_PBE C 08Apr2002                                                                     
   LULTRA =        F    use ultrasoft PP ?                                                          
   IUNSCR =        1    unscreen: 0-lin 1-nonlin 2-no                                               
   RPACOR =    1.200    partial core radius                                                         
   POMASS =   12.011; ZVAL   =    4.000    mass and valenz                                          
   RCORE  =    1.500    outmost cutoff radius                                                       
   RWIGS  =    1.630; RWIGS  =    0.863    wigner-seitz radius (au A)                               
   ENMAX  =  400.000; ENMIN  =  300.000 eV                                                          
   ICORE  =        2    local potential                                                             
   LCOR   =        T    correct aug charges                                                         
   LPAW   =        T    paw PP                                                                      
   EAUG   =  644.873                                                                                
   DEXC   =    0.000                                                                                
   RMAX   =    1.529    core radius for proj-oper                                                   
   RAUG   =    1.300    factor for augmentation sphere                                              
   RDEP   =    1.501    radius for radial grids                                                     
   RDEPT  =    1.300    core radius for aug-charge                                                  
                                                                                                    
   Atomic configuration                                                                             
    4 entries                                                                                       
     n  l   j            E        occ.                                                              
     1  0  0.50      -273.3789   2.0000                                                             
     2  0  0.50       -13.7508   2.0000                                                             
     2  1  0.50        -5.2854   2.0000                                                             
     3  2  1.50        -5.4423   0.0000                                                             
   Description                                                                                      
     l       E           TYP  RCUT    TYP  RCUT                                                     
     0    -13.7508458     23  1.200                                                                 
     0     -8.2022199     23  1.200                                                                 
     1     -5.2854383     23  1.500                                                                 
     1     34.0145650     23  1.500                                                                 
     2     -5.4423304      7  1.500                                                                 
  local pseudopotential read in
  partial core-charges read in
  partial kinetic energy density read in
  atomic valenz-charges read in
  non local Contribution for L=           0  read in
    real space projection operators read in
  non local Contribution for L=           0  read in
    real space projection operators read in
  non local Contribution for L=           1  read in
    real space projection operators read in
  non local Contribution for L=           1  read in
    real space projection operators read in
    PAW grid and wavefunctions read in
 
   number of l-projection  operators is LMAX  =           4
   number of lm-projection operators is LMMAX =           8
 
 POTCAR:    PAW_PBE H 15Jun2001                   
   SHA256 =  030f79b5d3ab3cf0e668861823c8fb652ff669f3e15e46930bd03bfd63a607b6 H/POTCAR              
   COPYR  = (c) Copyright 15Jun2001 Georg Kresse                                                    
   COPYR  = This file is part of the software VASP. Any use, copying, and all other rights are regul
   COPYR  = If you do not have a valid VASP license, you may not use, copy or distribute this file. 
   VRHFIN =H: ultrasoft test                                                                        
   LEXCH  = PE                                                                                      
   EATOM  =    12.4884 eV,    0.9179 Ry                                                             
                                                                                                    
   TITEL  = PAW_PBE H 15Jun2001                                                                     
   LULTRA =        F    use ultrasoft PP ?                                                          
   IUNSCR =        0    unscreen: 0-lin 1-nonlin 2-no                                               
   RPACOR =    0.000    partial core radius                                                         
   POMASS =    1.000; ZVAL   =    1.000    mass and valenz                                          
   RCORE  =    1.100    outmost cutoff radius                                                       
   RWIGS  =    0.700; RWIGS  =    0.370    wigner-seitz radius (au A)                               
   ENMAX  =  250.000; ENMIN  =  200.000 eV                                                          
   RCLOC  =    0.701    cutoff for local pot                                                        
   LCOR   =        T    correct aug charges                                                         
   LPAW   =        T    paw PP                                                                      
   EAUG   =  400.000                                                                                
   RMAX   =    1.123    core radius for proj-oper                                                   
   RAUG   =    1.200    factor for augmentation sphere                                              
   RDEP   =    1.112    radius for radial grids                                                     
   RDEPT  =    0.926    core radius for aug-charge                                                  
                                                                                                    
   Atomic configuration                                                                             
    2 entries                                                                                       
     n  l   j            E        occ.                                                              
     1  0  0.50        -6.4927   1.0000                                                             
     2  1  0.50        -3.4015   0.0000                                                             
   Description                                                                                      
     l       E           TYP  RCUT    TYP  RCUT                                                     
     0     -6.4927494     23  1.100                                                                 
     0      6.8029130     23  1.100                                                                 
     1     -4.0817478     23  1.100                                                                 
  local pseudopotential read in
  atomic valenz-charges read in
  non local Contribution for L=           0  read in
    real space projection operators read in
  non local Contribution for L=           0  read in
    real space projection operators read in
  non local Contribution for L=           1  read in
    real space projection operators read in
    PAW grid and wavefunctions read in
 
   number of l-projection  operators is LMAX  =           3
   number of lm-projection operators is LMMAX =           5
 
 POTCAR:    PAW_PBE N 08Apr2002                   
   SHA256 =  e053789ff3a61a86a1b75d8a110fcc91f86041011e7b0817c7c99e4e8a6349d7 N/POTCAR              
   COPYR  = (c) Copyright 08Apr2002 Georg Kresse                                                    
   COPYR  = This file is part of the software VASP. Any use, copying, and all other rights are regul
   COPYR  = If you do not have a valid VASP license, you may not use, copy or distribute this file. 
   VRHFIN =N: s2p3                                                                                  
   LEXCH  = PE                                                                                      
   EATOM  =   264.5486 eV,   19.4438 Ry                                                             
                                                                                                    
   TITEL  = PAW_PBE N 08Apr2002                                                                     
   LULTRA =        F    use ultrasoft PP ?                                                          
   IUNSCR =        1    unscreen: 0-lin 1-nonlin 2-no                                               
   RPACOR =    1.200    partial core radius                                                         
   POMASS =   14.001; ZVAL   =    5.000    mass and valenz                                          
   RCORE  =    1.500    outmost cutoff radius                                                       
   RWIGS  =    1.400; RWIGS  =    0.741    wigner-seitz radius (au A)                               
   ENMAX  =  400.000; ENMIN  =  300.000 eV                                                          
   ICORE  =        2    local potential                                                             
   LCOR   =        T    correct aug charges                                                         
   LPAW   =        T    paw PP                                                                      
   EAUG   =  627.112                                                                                
   DEXC   =    0.000                                                                                
   RMAX   =    1.529    core radius for proj-oper                                                   
   RAUG   =    1.300    factor for augmentation sphere                                              
   RDEP   =    1.514    radius for radial grids                                                     
   RDEPT  =    1.338    core radius for aug-charge                                                  
                                                                                                    
   Atomic configuration                                                                             
    4 entries                                                                                       
     n  l   j            E        occ.                                                              
     1  0  0.50      -384.7179   2.0000                                                             
     2  0  0.50       -18.5828   2.0000                                                             
     2  1  0.50        -7.0898   3.0000                                                             
     3  2  1.50        -6.8029   0.0000                                                             
   Description                                                                                      
     l       E           TYP  RCUT    TYP  RCUT                                                     
     0    -18.5828119     23  1.200                                                                 
     0    -13.5018863     23  1.200                                                                 
     1     -7.0897853     23  1.500                                                                 
     1      9.5240782     23  1.500                                                                 
     2     -6.8029130      7  1.500                                                                 
  local pseudopotential read in
  partial core-charges read in
  partial kinetic energy density read in
  atomic valenz-charges read in
  non local Contribution for L=           0  read in
    real space projection operators read in
  non local Contribution for L=           0  read in
    real space projection operators read in
  non local Contribution for L=           1  read in
    real space projection operators read in
  non local Contribution for L=           1  read in
    real space projection operators read in
    PAW grid and wavefunctions read in
 
   number of l-projection  operators is LMAX  =           4
   number of lm-projection operators is LMMAX =           8
 
 Optimization of the real space projectors (new method)

 maximal supplied QI-value         = 25.13
 optimisation between [QCUT,QGAM] = [ 12.32, 24.88] = [ 42.47,173.37] Ry 
 Optimized for a Real-space Cutoff    1.06 Angstroem

   l    n(q)    QCUT    max X(q) W(low)/X(q) W(high)/X(q)  e(spline) 
   0      8    12.315   115.676    0.34E-03    0.18E-03    0.23E-06
   0      8    12.315    87.132    0.34E-03    0.18E-03    0.22E-06
   1      7    12.315     4.429    0.45E-03    0.12E-03    0.18E-06
   1      7    12.315     2.733    0.35E-03    0.97E-04    0.15E-06
 Optimization of the real space projectors (new method)

 maximal supplied QI-value         = 34.20
 optimisation between [QCUT,QGAM] = [ 12.31, 24.97] = [ 42.46,174.58] Ry 
 Optimized for a Real-space Cutoff    1.00 Angstroem

   l    n(q)    QCUT    max X(q) W(low)/X(q) W(high)/X(q)  e(spline) 
   0      7    12.313    19.460    0.14E-03    0.42E-03    0.16E-06
   0      7    12.313    12.209    0.12E-03    0.40E-03    0.16E-06
   1      7    12.313     4.655    0.33E-03    0.59E-03    0.89E-07
 Optimization of the real space projectors (new method)

 maximal supplied QI-value         = 25.13
 optimisation between [QCUT,QGAM] = [ 12.32, 24.88] = [ 42.47,173.37] Ry 
 Optimized for a Real-space Cutoff    1.20 Angstroem

   l    n(q)    QCUT    max X(q) W(low)/X(q) W(high)/X(q)  e(spline) 
   0      9    12.315    79.467    0.14E-03    0.22E-04    0.37E-06
   0      9    12.315    66.151    0.14E-03    0.23E-04    0.36E-06
   1      8    12.315    22.077    0.30E-03    0.54E-03    0.45E-06
   1      8    12.315    15.894    0.30E-03    0.55E-03    0.45E-06
 -----------------------------------------------------------------------------
|                                                                             |
|               ----> ADVICE to this user running VASP <----                  |
|                                                                             |
|     You enforced a specific xc type in the INCAR file but a different       |
|     type was found in the POTCAR file.                                      |
|     I HOPE YOU KNOW WHAT YOU ARE DOING!                                     |
|                                                                             |
 -----------------------------------------------------------------------------

  PAW_PBE C 08Apr2002                   :
 energy of atom  1       EATOM= -147.1560
 kinetic energy error for atom=    0.0057 (will be added to EATOM!!)
  PAW_PBE H 15Jun2001                   :
 energy of atom  2       EATOM=  -12.4884
 kinetic energy error for atom=    0.0004 (will be added to EATOM!!)
  PAW_PBE N 08Apr2002                   :
 energy of atom  3       EATOM= -264.5486
 kinetic energy error for atom=    0.0103 (will be added to EATOM!!)
 
 
 POSCAR:  C  H  N
  positions in direct lattice
  velocities in cartesian coordinates
 exchange correlation table for  LEXCH =       43
   RHO(1)=    0.500       N(1)  =     2000
   RHO(2)=  100.500       N(2)  =     4000

 VTST: version 4.1, (05/19/21)

 CHAIN: initializing optimizer
 
 OPT: Using VASP Conjugate-Gradient optimizer
 CHAIN: Read ICHAIN            0
 
 POSCAR:  C  H  N
  positions in direct lattice
  velocities in cartesian coordinates
 


--------------------------------------------------------------------------------------------------------


 ion  position               nearest neighbor table
   1  0.500  0.501  0.551-  11 1.09   6 1.40   2 1.40
   2  0.544  0.588  0.532-  10 1.09   4 1.39   1 1.40
   3  0.456  0.412  0.494-   8 1.09   6 1.39   5 1.41
   4  0.544  0.588  0.494-   7 1.09   2 1.39   5 1.41
   5  0.500  0.500  0.474-  14 1.40   4 1.41   3 1.41
   6  0.457  0.413  0.532-   9 1.09   3 1.39   1 1.40
   7  0.578  0.657  0.478-   4 1.09
   8  0.422  0.342  0.479-   3 1.09
   9  0.422  0.343  0.547-   6 1.09
  10  0.579  0.658  0.546-   2 1.09
  11  0.500  0.501  0.581-   1 1.09
  12  0.547  0.561  0.423-  14 1.02
  13  0.486  0.438  0.423-  14 1.02
  14  0.496  0.499  0.436-  13 1.02  12 1.02   5 1.40
 
  LATTYP: Found a hexagonal cell.
 ALAT       =    15.8227970706
 C/A-ratio  =     2.3015724012
  
  Lattice vectors:
  
 A1 = (   7.9113985353, -13.7029442220,   0.0000000000)
 A2 = (   7.9113985353,  13.7029442220,   0.0000000000)
 A3 = (   0.0000000000,   0.0000000000,  36.4173130480)


Analysis of symmetry for initial positions (statically):
=====================================================================
 Subroutine PRICEL returns:
 Original cell was already a primitive cell.
 

 Routine SETGRP: Setting up the symmetry group for a 
 hexagonal supercell.


 Subroutine GETGRP returns: Found  1 space group operations
 (whereof  1 operations were pure point group operations)
 out of a pool of 24 trial point group operations.


The static configuration has the point symmetry C_1 .


Analysis of symmetry for dynamics (positions and initial velocities):
=====================================================================
 Subroutine PRICEL returns:
 Original cell was already a primitive cell.
 

 Routine SETGRP: Setting up the symmetry group for a 
 hexagonal supercell.


 Subroutine GETGRP returns: Found  1 space group operations
 (whereof  1 operations were pure point group operations)
 out of a pool of 24 trial point group operations.


The dynamic configuration has the point symmetry C_1 .


Analysis of structural, dynamic, and magnetic symmetry:
=====================================================================
 Subroutine PRICEL returns:
 Original cell was already a primitive cell.
 

 Routine SETGRP: Setting up the symmetry group for a 
 hexagonal supercell.


 Subroutine GETGRP returns: Found  1 space group operations
 (whereof  1 operations were pure point group operations)
 out of a pool of 24 trial point group operations.


The overall configuration has the point symmetry C_1 .


 Subroutine INISYM returns: Found  1 space group operations
 (whereof  1 operations are pure point group operations),
 and found     1 'primitive' translations


----------------------------------------------------------------------------------------

                                     Primitive cell                                     

  volume of cell :    7895.9620

  direct lattice vectors                    reciprocal lattice vectors
     7.911398535-13.702944222  0.000000000     0.063199951 -0.036488509  0.000000000
     7.911398535 13.702944222  0.000000000     0.063199951  0.036488509  0.000000000
     0.000000000  0.000000000 36.417313048     0.000000000  0.000000000  0.027459467

  length of vectors
    15.822797071 15.822797071 36.417313048     0.072977017  0.072977017  0.027459467

  position of ions in fractional coordinates (direct lattice)
     0.500157883  0.500631823  0.551472196
     0.543962494  0.588216978  0.531808099
     0.456454334  0.411678128  0.493859846
     0.544202142  0.588161307  0.493542693
     0.500225780  0.499673711  0.473992444
     0.456590440  0.412565835  0.532125941
     0.578476428  0.657207790  0.478462697
     0.421838378  0.342271812  0.479022188
     0.422114383  0.343302595  0.546991453
     0.578604388  0.657811785  0.546437177
     0.500000846  0.500970619  0.581428028
     0.547010205  0.560938890  0.423002596
     0.486299462  0.437627423  0.423191563
     0.496013752  0.499204231  0.435712063

  ion indices of the primitive-cell ions
   primitive index   ion index
                 1           1
                 2           2
                 3           3
                 4           4
                 5           5
                 6           6
                 7           7
                 8           8
                 9           9
                10          10
                11          11
                12          12
                13          13
                14          14

----------------------------------------------------------------------------------------

 
 
 KPOINTS: K-Points                                

Automatic generation of k-mesh.
 Grid dimensions read from file:
 generate k-points for:    1    1    1

 Generating k-lattice:

  Cartesian coordinates                     Fractional coordinates (reciprocal lattice)
     0.063199951 -0.036488509  0.000000000     1.000000000  0.000000000  0.000000000
     0.063199951  0.036488509  0.000000000    -0.000000000  1.000000000  0.000000000
     0.000000000  0.000000000  0.027459467     0.000000000  0.000000000  1.000000000

  Length of vectors
     0.072977017  0.072977017  0.027459467

  Shift w.r.t. Gamma in fractional coordinates (k-lattice)
     0.000000000  0.000000000  0.000000000

 
 Subroutine IBZKPT returns following result:
 ===========================================
 
 Found      1 irreducible k-points:
 
 Following reciprocal coordinates:
            Coordinates               Weight
  0.000000  0.000000  0.000000      1.000000
 
 Following cartesian coordinates:
            Coordinates               Weight
  0.000000  0.000000  0.000000      1.000000
 


--------------------------------------------------------------------------------------------------------




 Dimension of arrays:
   k-points           NKPTS =      1   k-points in BZ     NKDIM =      1   number of bands    NBANDS=     48
   number of dos      NEDOS =    301   number of ions     NIONS =     14
   non local maximal  LDIM  =      4   non local SUM 2l+1 LMDIM =      8
   total plane-waves  NPLWV = ******
   max r-space proj   IRMAX =   1922   max aug-charges    IRDMAX=   3416
   dimension x,y,z NGX =    96 NGY =   96 NGZ =  224
   dimension x,y,z NGXF=   192 NGYF=  192 NGZF=  448
   support grid    NGXF=   192 NGYF=  192 NGZF=  448
   ions per type =               6   7   1
   NGX,Y,Z   is equivalent  to a cutoff of  10.09, 10.09, 10.23 a.u.
   NGXF,Y,Z  is equivalent  to a cutoff of  20.17, 20.17, 20.45 a.u.

 SYSTEM =  unknown system                          
 POSCAR =   C  H  N                                

 Startparameter for this run:
   NWRITE =      2    write-flag & timer
   PREC   = normal    normal or accurate (medium, high low for compatibility)
   ISTART =      0    job   : 0-new  1-cont  2-samecut
   ICHARG =      2    charge: 1-file 2-atom 10-const
   ISPIN  =      2    spin polarized calculation?
   LNONCOLLINEAR =      F non collinear calculations
   LSORBIT =      F    spin-orbit coupling
   INIWAV =      1    electr: 0-lowe 1-rand  2-diag
   LASPH  =      T    aspherical Exc in radial PAW
 Electronic Relaxation 1
   ENCUT  =  600.0 eV  44.10 Ry    6.64 a.u.  31.60 31.60 72.73*2*pi/ulx,y,z
   ENINI  =  600.0     initial cutoff
   ENAUG  =  644.9 eV  augmentation charge cutoff
   NELM   =   2000;   NELMIN=  2; NELMDL=  0     # of ELM steps 
   EDIFF  = 0.1E-05   stopping-criterion for ELM
   LREAL  =      T    real-space projection
   NLSPLINE    = F    spline interpolate recip. space projectors
   LCOMPAT=      F    compatible to vasp.4.4
   GGA_COMPAT  = T    GGA compatible to vasp.4.4-vasp.4.6
   LMAXPAW     = -100 max onsite density
   LMAXMIX     =    2 max onsite mixed and CHGCAR
   VOSKOWN=      0    Vosko Wilk Nusair interpolation
   ROPT   =   -0.00050  -0.00050  -0.00050
 Ionic relaxation
   EDIFFG = -.1E-01   stopping-criterion for IOM
   NSW    =   5000    number of steps for IOM
   NBLOCK =      1;   KBLOCK =   5000    inner block; outer block 
   IBRION =      2    ionic relax: 0-MD 1-quasi-New 2-CG
   NFREE  =      1    steps in history (QN), initial steepest desc. (CG)
   ISIF   =      2    stress and relaxation
   IWAVPR =     11    prediction:  0-non 1-charg 2-wave 3-comb
   ISYM   =      2    0-nonsym 1-usesym 2-fastsym
   LCORR  =      T    Harris-Foulkes like correction to forces

   POTIM  = 0.5000    time-step for ionic-motion
   TEIN   =    0.0    initial temperature
   TEBEG  =    0.0;   TEEND  =   0.0 temperature during run
   SMASS  =  -3.00    Nose mass-parameter (am)
   estimated Nose-frequenzy (Omega)   =  0.10E-29 period in steps = 0.13E+47 mass=  -0.572E-26a.u.
   SCALEE = 1.0000    scale energy and forces
   NPACO  =    256;   APACO  = 10.0  distance and # of slots for P.C.
   PSTRESS=    0.0 pullay stress

  Mass of Ions in am
   POMASS =  12.01  1.00 14.00
  Ionic Valenz
   ZVAL   =   4.00  1.00  5.00
  Atomic Wigner-Seitz radii
   RWIGS  =  -1.00 -1.00 -1.00
  virtual crystal weights 
   VCA    =   1.00  1.00  1.00
   NELECT =      36.0000    total number of electrons
   NUPDOWN=      -1.0000    fix difference up-down

 DOS related values:
   EMIN   =  10.00;   EMAX   =-10.00  energy-range for DOS
   EFERMI =   0.00
   ISMEAR =     0;   SIGMA  =   0.05  broadening in eV -4-tet -1-fermi 0-gaus

 Electronic relaxation 2 (details)
   IALGO  =     38    algorithm
   LDIAG  =      T    sub-space diagonalisation (order eigenvalues)
   LSUBROT=      F    optimize rotation matrix (better conditioning)
   TURBO    =      0    0=normal 1=particle mesh
   IRESTART =      0    0=no restart 2=restart with 2 vectors
   NREBOOT  =      0    no. of reboots
   NMIN     =      0    reboot dimension
   EREF     =   0.00    reference energy to select bands
   IMIX   =      4    mixing-type and parameters
     AMIX     =   0.40;   BMIX     =  1.00
     AMIX_MAG =   1.60;   BMIX_MAG =  1.00
     AMIN     =   0.10
     WC   =   100.;   INIMIX=   1;  MIXPRE=   1;  MAXMIX= -45

 Intra band minimization:
   WEIMIN = 0.0010     energy-eigenvalue tresh-hold
   EBREAK =  0.52E-08  absolut break condition
   DEPER  =   0.30     relativ break condition  

   TIME   =   0.40     timestep for ELM

  volume/ion in A,a.u.               =     564.00      3806.04
  Fermi-wavevector in a.u.,A,eV,Ry     =   0.271461  0.512987  1.002627  0.073691
  Thomas-Fermi vector in A             =   1.110983
 
 Write flags
   LWAVE        =      F    write WAVECAR
   LDOWNSAMPLE  =      F    k-point downsampling of WAVECAR
   LCHARG       =      F    write CHGCAR
   LVTOT        =      F    write LOCPOT, total local potential
   LVHAR        =      F    write LOCPOT, Hartree potential only
   LELF         =      F    write electronic localiz. function (ELF)
   LORBIT       =      0    0 simple, 1 ext, 2 COOP (PROOUT), +10 PAW based schemes


 Dipole corrections
   LMONO  =      F    monopole corrections only (constant potential shift)
   LDIPOL =      F    correct potential (dipole corrections)
   IDIPOL =      0    1-x, 2-y, 3-z, 4-all directions 
   EPSILON=  1.0000000 bulk dielectric constant

 Exchange correlation treatment:
   GGA     =    MK    GGA type
   LEXCH   =    43    internal setting for exchange type
   LIBXC   =     F    Libxc                    
   VOSKOWN =     0    Vosko Wilk Nusair interpolation
   LHFCALC =     F    Hartree Fock is set to
   LHFONE  =     F    Hartree Fock one center treatment
   AEXX    =    0.0000 exact exchange contribution

 vdW DFT:
   LUSE_VDW   =     T    switch on vdW DFT
   Zab_VDW    =-.8491    correlation parameter
   PARAM1     =0.1234
   PARAM2     =1.0000
   PARAM3     =0.0000
   -- rVV10 --
   BPARAM     = 6.3000
   CPARAM     = 0.0093

 Linear response parameters
   LEPSILON=     F    determine dielectric tensor
   LRPA    =     F    only Hartree local field effects (RPA)
   LNABLA  =     F    use nabla operator in PAW spheres
   LVEL    =     F    velocity operator in full k-point grid
   CSHIFT  =0.1000    complex shift for real part using Kramers Kronig
   OMEGAMAX=  -1.0    maximum frequency
   DEG_THRESHOLD= 0.2000000E-02 threshold for treating states as degnerate
   RTIME   =   -0.100 relaxation time in fs
  (WPLASMAI=    0.000 imaginary part of plasma frequency in eV, 0.658/RTIME)
   DFIELD  = 0.0000000 0.0000000 0.0000000 field for delta impulse in time
 
  Optional k-point grid parameters
   LKPOINTS_OPT  =     F    use optional k-point grid
   KPOINTS_OPT_MODE=     1    mode for optional k-point grid
 
 Orbital magnetization related:
   ORBITALMAG=     F  switch on orbital magnetization
   LCHIMAG   =     F  perturbation theory with respect to B field
   DQ        =  0.001000  dq finite difference perturbation B field
   LLRAUG    =     F  two centre corrections for induced B field



--------------------------------------------------------------------------------------------------------


 conjugate gradient relaxation of ions
 charge density and potential will be updated during run
 spin polarized calculation
 Variant of blocked Davidson
 Davidson routine will perform the subspace rotation
 perform sub-space diagonalisation
    after iterative eigenvector-optimisation
 modified Broyden-mixing scheme, WC =      100.0
 initial mixing is a Kerker type mixing with AMIX =  0.4000 and BMIX =      1.0000
 Hartree-type preconditioning will be used
 using additional bands           30
 real space projection scheme for non local part
 use partial core corrections
 calculate Harris-corrections to forces 
   (improved forces if not selfconsistent)
 use gradient corrections 
 use of overlap-Matrix (Vanderbilt PP)
 Gauss-broadening in eV      SIGMA  =   0.05


--------------------------------------------------------------------------------------------------------


  energy-cutoff  :      600.00
  volume of cell :     7895.96
      direct lattice vectors                 reciprocal lattice vectors
     7.911398535-13.702944222  0.000000000     0.063199951 -0.036488509  0.000000000
     7.911398535 13.702944222  0.000000000     0.063199951  0.036488509  0.000000000
     0.000000000  0.000000000 36.417313048     0.000000000  0.000000000  0.027459467

  length of vectors
    15.822797071 15.822797071 36.417313048     0.072977017  0.072977017  0.027459467


 
 k-points in units of 2pi/SCALE and weight: K-Points                                
   0.00000000  0.00000000  0.00000000       1.000
 
 k-points in reciprocal lattice and weights: K-Points                                
   0.00000000  0.00000000  0.00000000       1.000
 
 position of ions in fractional coordinates (direct lattice) 
   0.50015788  0.50063182  0.55147220
   0.54396249  0.58821698  0.53180810
   0.45645433  0.41167813  0.49385985
   0.54420214  0.58816131  0.49354269
   0.50022578  0.49967371  0.47399244
   0.45659044  0.41256584  0.53212594
   0.57847643  0.65720779  0.47846270
   0.42183838  0.34227181  0.47902219
   0.42211438  0.34330259  0.54699145
   0.57860439  0.65781178  0.54643718
   0.50000085  0.50097062  0.58142803
   0.54701021  0.56093889  0.42300260
   0.48629946  0.43762742  0.42319156
   0.49601375  0.49920423  0.43571206
 
 position of ions in cartesian coordinates  (Angst):
   7.91764621  0.00649438 20.08313559
   8.95712302  0.60641672 19.36702203
   6.86814189 -0.61356585 17.98504862
   8.95857853  0.60236998 17.97349877
   7.91060336 -0.00756497 17.26153120
   6.87624168 -0.60326670 19.37859697
   9.77599032  1.07885146 17.42432582
   6.04518024 -1.09029622 17.44470096
   6.05551875 -1.07995353 19.91995896
   9.78178109  1.08537454 19.89977375
   7.91908418  0.01328874 21.17404650
   8.76542685  0.19086399 15.40461796
   7.30955381 -0.66695025 15.41149964
   7.87356609  0.04371895 15.86746258
 


--------------------------------------------------------------------------------------------------------


 use parallel FFT for orbitals z direction half grid
 k-point   1 :   0.0000 0.0000 0.0000  plane waves:  131815

 maximum and minimum number of plane-waves per node :     32957    32949

 maximum number of plane-waves:    131815
 maximum index in each direction: 
   IXMAX=   31   IYMAX=   31   IZMAX=   72
   IXMIN=  -31   IYMIN=  -31   IZMIN=    0


 real space projection operators:
  total allocation   :        884.20 KBytes
  max/ min on nodes  :        225.73        217.19


 parallel 3D FFT for wavefunctions:
    minimum data exchange during FFTs selected (reduces bandwidth)
 parallel 3D FFT for charge:
    minimum data exchange during FFTs selected (reduces bandwidth)


 total amount of memory used by VASP MPI-rank0   105824. kBytes
=======================================================================

   base      :      30000. kBytes
   nonlr-proj:        266. kBytes
   fftplans  :      16881. kBytes
   grid      :      56555. kBytes
   one-center:         12. kBytes
   wavefun   :       2110. kBytes
 
     INWAV:  cpu time      0.0004: real time      0.0006
 Broyden mixing: mesh for mixing (old mesh)
   NGX = 63   NGY = 63   NGZ =145
  (NGX  =192   NGY  =192   NGZ  =448)
  gives a total of 575505 points

 initial charge density was supplied:
 charge density of overlapping atoms calculated
 number of electron      36.0000000 magnetization      14.0000000
 keeping initial charge density in first step


--------------------------------------------------------------------------------------------------------


 Maximum index for non-local projection operator          440
 Maximum index for augmentation-charges          235 (set IRDMAX)


--------------------------------------------------------------------------------------------------------


 First call to EWALD:  gamma=   0.089
 Maximum number of real-space cells 4x 4x 2
 Maximum number of reciprocal cells 2x 2x 5

    FEWALD:  cpu time      0.0084: real time      0.0084


--------------------------------------- Iteration      1(   1)  ---------------------------------------


vdW kernel read from vdw_kernel.bindat
  0.0000  0.2424  0.5071  0.7962  1.1119  1.4567  1.8333  2.2446  2.6937  3.1842
  3.7199  4.3049  4.9438  5.6415  6.4036  7.2358  8.1446  9.1372 10.2212 11.4050
 12.6979 14.1099 15.6519 17.3360 19.1751 21.1837 23.3773 25.7729 28.3892 31.2465
 34.3669 37.7748 41.4965 45.5611 50.0000
 
    POTLOK:  cpu time     10.3332: real time     10.3815
    SETDIJ:  cpu time      1.3001: real time      1.3011
     EDDAV:  cpu time      3.0605: real time      3.1208
       DOS:  cpu time      0.0126: real time      0.0126
    --------------------------------------------
      LOOP:  cpu time     14.7066: real time     14.8161

 eigenvalue-minimisations  :   288
 total energy-change (2. order) : 0.1912864E+03  (-0.9638125E+03)
 number of electron      36.0000000 magnetization      14.0000000
 augmentation part       36.0000000 magnetization      14.0000000

 Free energy of the ion-electron system (eV)
  ---------------------------------------------------
  alpha Z        PSCENC =         0.73779585
  Ewald energy   TEWEN  =      2932.97672975
  -Hartree energ DENC   =     -3749.30275216
  -exchange      EXHF   =         0.00000000
  -V(xc)+E(xc)   XCENC  =       117.38011170
  PAW double counting   =       869.84037807     -872.07122835
  entropy T*S    EENTRO =        -0.01400830
  eigenvalues    EBANDS =      -350.51849133
  atomic energy  EATOM  =      1242.25790175
  Solvation  Ediel_sol  =         0.00000000
  ---------------------------------------------------
  free energy    TOTEN  =       191.28643697 eV

  energy without entropy =      191.30044526  energy(sigma->0) =      191.29344112


--------------------------------------------------------------------------------------------------------




--------------------------------------- Iteration      1(   2)  ---------------------------------------


     EDDAV:  cpu time      3.2177: real time      3.2226
       DOS:  cpu time      0.0041: real time      0.0041
    --------------------------------------------
      LOOP:  cpu time      3.2218: real time      3.2267

 eigenvalue-minimisations  :   336
 total energy-change (2. order) :-0.2342856E+03  (-0.2308503E+03)
 number of electron      36.0000000 magnetization      14.0000000
 augmentation part       36.0000000 magnetization      14.0000000

 Free energy of the ion-electron system (eV)
  ---------------------------------------------------
  alpha Z        PSCENC =         0.73779585
  Ewald energy   TEWEN  =      2932.97672975
  -Hartree energ DENC   =     -3749.30275216
  -exchange      EXHF   =         0.00000000
  -V(xc)+E(xc)   XCENC  =       117.38011170
  PAW double counting   =       869.84037807     -872.07122835
  entropy T*S    EENTRO =        -0.00000000
  eigenvalues    EBANDS =      -584.81808829
  atomic energy  EATOM  =      1242.25790175
  Solvation  Ediel_sol  =         0.00000000
  ---------------------------------------------------
  free energy    TOTEN  =       -42.99915170 eV

  energy without entropy =      -42.99915170  energy(sigma->0) =      -42.99915170


--------------------------------------------------------------------------------------------------------




--------------------------------------- Iteration      1(   3)  ---------------------------------------


     EDDAV:  cpu time      2.9970: real time      3.0024
       DOS:  cpu time      0.0008: real time      0.0008
    --------------------------------------------
      LOOP:  cpu time      2.9978: real time      3.0031

 eigenvalue-minimisations  :   312
 total energy-change (2. order) :-0.3384919E+02  (-0.3376262E+02)
 number of electron      36.0000000 magnetization      14.0000000
 augmentation part       36.0000000 magnetization      14.0000000

 Free energy of the ion-electron system (eV)
  ---------------------------------------------------
  alpha Z        PSCENC =         0.73779585
  Ewald energy   TEWEN  =      2932.97672975
  -Hartree energ DENC   =     -3749.30275216
  -exchange      EXHF   =         0.00000000
  -V(xc)+E(xc)   XCENC  =       117.38011170
  PAW double counting   =       869.84037807     -872.07122835
  entropy T*S    EENTRO =        -0.00000000
  eigenvalues    EBANDS =      -618.66728082
  atomic energy  EATOM  =      1242.25790175
  Solvation  Ediel_sol  =         0.00000000
  ---------------------------------------------------
  free energy    TOTEN  =       -76.84834423 eV

  energy without entropy =      -76.84834423  energy(sigma->0) =      -76.84834423


--------------------------------------------------------------------------------------------------------




--------------------------------------- Iteration      1(   4)  ---------------------------------------


     EDDAV:  cpu time      2.9899: real time      2.9941
       DOS:  cpu time      0.0011: real time      0.0011
    --------------------------------------------
      LOOP:  cpu time      2.9910: real time      2.9951

 eigenvalue-minimisations  :   312
 total energy-change (2. order) :-0.1271295E+01  (-0.1270034E+01)
 number of electron      36.0000000 magnetization      14.0000000
 augmentation part       36.0000000 magnetization      14.0000000

 Free energy of the ion-electron system (eV)
  ---------------------------------------------------
  alpha Z        PSCENC =         0.73779585
  Ewald energy   TEWEN  =      2932.97672975
  -Hartree energ DENC   =     -3749.30275216
  -exchange      EXHF   =         0.00000000
  -V(xc)+E(xc)   XCENC  =       117.38011170
  PAW double counting   =       869.84037807     -872.07122835
  entropy T*S    EENTRO =        -0.00000000
  eigenvalues    EBANDS =      -619.93857628
  atomic energy  EATOM  =      1242.25790175
  Solvation  Ediel_sol  =         0.00000000
  ---------------------------------------------------
  free energy    TOTEN  =       -78.11963969 eV

  energy without entropy =      -78.11963969  energy(sigma->0) =      -78.11963969


--------------------------------------------------------------------------------------------------------




--------------------------------------- Iteration      1(   5)  ---------------------------------------


     EDDAV:  cpu time      2.6057: real time      2.6099
       DOS:  cpu time      0.0010: real time      0.0010
    CHARGE:  cpu time      0.3681: real time      0.3683
    MIXING:  cpu time      0.0362: real time      0.0413
    --------------------------------------------
      LOOP:  cpu time      3.0110: real time      3.0206

 eigenvalue-minimisations  :   264
 total energy-change (2. order) :-0.2345738E-01  (-0.2345683E-01)
 number of electron      35.9999998 magnetization      13.3524807
 augmentation part        1.1531523 magnetization      13.3588805

 Broyden mixing:
  rms(total) = 0.24965E+01    rms(broyden)= 0.24964E+01
  rms(prec ) = 0.25291E+01
  weight for this iteration     100.00

 Free energy of the ion-electron system (eV)
  ---------------------------------------------------
  alpha Z        PSCENC =         0.73779585
  Ewald energy   TEWEN  =      2932.97672975
  -Hartree energ DENC   =     -3749.30275216
  -exchange      EXHF   =         0.00000000
  -V(xc)+E(xc)   XCENC  =       117.38011170
  PAW double counting   =       869.84037807     -872.07122835
  entropy T*S    EENTRO =        -0.00000000
  eigenvalues    EBANDS =      -619.96203367
  atomic energy  EATOM  =      1242.25790175
  Solvation  Ediel_sol  =         0.00000000
  ---------------------------------------------------
  free energy    TOTEN  =       -78.14309707 eV

  energy without entropy =      -78.14309707  energy(sigma->0) =      -78.14309707


--------------------------------------------------------------------------------------------------------




--------------------------------------- Iteration      1(   6)  ---------------------------------------


    POTLOK:  cpu time      8.7591: real time      8.7679
    SETDIJ:  cpu time      1.2995: real time      1.3010
     EDDAV:  cpu time      2.4483: real time      2.4531
       DOS:  cpu time      0.0011: real time      0.0011
    CHARGE:  cpu time      0.3064: real time      0.3064
    MIXING:  cpu time      0.0322: real time      0.0403
    --------------------------------------------
      LOOP:  cpu time     12.8467: real time     12.8698

 eigenvalue-minimisations  :   240
 total energy-change (2. order) : 0.4089916E+01  (-0.2775698E+01)
 number of electron      35.9999999 magnetization      12.7234265
 augmentation part        1.0405695 magnetization      12.6838285

 Broyden mixing:
  rms(total) = 0.11205E+01    rms(broyden)= 0.11204E+01
  rms(prec ) = 0.11355E+01
  weight for this iteration     100.00

 eigenvalues of (default mixing * dielectric matrix)
  average eigenvalue GAMMA=   0.8875
  0.8875

 Free energy of the ion-electron system (eV)
  ---------------------------------------------------
  alpha Z        PSCENC =         0.73779585
  Ewald energy   TEWEN  =      2932.97672975
  -Hartree energ DENC   =     -3830.28781141
  -exchange      EXHF   =         0.00000000
  -V(xc)+E(xc)   XCENC  =       122.25629951
  PAW double counting   =      1580.68177297    -1583.59848715
  entropy T*S    EENTRO =        -0.00000000
  eigenvalues    EBANDS =      -539.07738205
  atomic energy  EATOM  =      1242.25790175
  Solvation  Ediel_sol  =         0.00000000
  ---------------------------------------------------
  free energy    TOTEN  =       -74.05318078 eV

  energy without entropy =      -74.05318078  energy(sigma->0) =      -74.05318078


--------------------------------------------------------------------------------------------------------




--------------------------------------- Iteration      1(   7)  ---------------------------------------


    POTLOK:  cpu time      8.7015: real time      8.7119
    SETDIJ:  cpu time      1.2986: real time      1.2994
     EDDAV:  cpu time      3.1728: real time      3.1778
       DOS:  cpu time      0.0155: real time      0.0155
    CHARGE:  cpu time      0.3024: real time      0.3026
    MIXING:  cpu time      0.0309: real time      0.0328
    --------------------------------------------
      LOOP:  cpu time     13.5217: real time     13.5399

 eigenvalue-minimisations  :   336
 total energy-change (2. order) :-0.2527950E+01  (-0.4693599E+00)
 number of electron      35.9999999 magnetization      11.8504124
 augmentation part        1.0041328 magnetization      11.8371285

 Broyden mixing:
  rms(total) = 0.69287E+00    rms(broyden)= 0.69286E+00
  rms(prec ) = 0.69988E+00
  weight for this iteration     100.00

 eigenvalues of (default mixing * dielectric matrix)
  average eigenvalue GAMMA=   1.0825
  0.8036  1.3615

 Free energy of the ion-electron system (eV)
  ---------------------------------------------------
  alpha Z        PSCENC =         0.73779585
  Ewald energy   TEWEN  =      2932.97672975
  -Hartree energ DENC   =     -3868.30504261
  -exchange      EXHF   =         0.00000000
  -V(xc)+E(xc)   XCENC  =       121.22978855
  PAW double counting   =      2133.43048868    -2136.55092621
  entropy T*S    EENTRO =        -0.00000000
  eigenvalues    EBANDS =      -502.35786609
  atomic energy  EATOM  =      1242.25790175
  Solvation  Ediel_sol  =         0.00000000
  ---------------------------------------------------
  free energy    TOTEN  =       -76.58113034 eV

  energy without entropy =      -76.58113034  energy(sigma->0) =      -76.58113034


--------------------------------------------------------------------------------------------------------




--------------------------------------- Iteration      1(   8)  ---------------------------------------


    POTLOK:  cpu time      8.7490: real time      8.7583
    SETDIJ:  cpu time      1.2933: real time      1.2942
     EDDAV:  cpu time      3.3737: real time      3.3799
       DOS:  cpu time      0.0011: real time      0.0011
    CHARGE:  cpu time      0.3030: real time      0.3030
    MIXING:  cpu time      0.0311: real time      0.0311
    --------------------------------------------
      LOOP:  cpu time     13.7511: real time     13.7675

 eigenvalue-minimisations  :   360
 total energy-change (2. order) :-0.6825714E+00  (-0.1043896E+00)
 number of electron      35.9999999 magnetization      10.9892262
 augmentation part        0.9839132 magnetization      10.9802352

 Broyden mixing:
  rms(total) = 0.36970E+00    rms(broyden)= 0.36970E+00
  rms(prec ) = 0.37251E+00
  weight for this iteration     100.00

 eigenvalues of (default mixing * dielectric matrix)
  average eigenvalue GAMMA=   1.2362
  2.0662  0.9330  0.7095

 Free energy of the ion-electron system (eV)
  ---------------------------------------------------
  alpha Z        PSCENC =         0.73779585
  Ewald energy   TEWEN  =      2932.97672975
  -Hartree energ DENC   =     -3897.49050822
  -exchange      EXHF   =         0.00000000
  -V(xc)+E(xc)   XCENC  =       121.79576958
  PAW double counting   =      2734.57620948    -2737.78317589
  entropy T*S    EENTRO =        -0.00000000
  eigenvalues    EBANDS =      -474.33442408
  atomic energy  EATOM  =      1242.25790175
  Solvation  Ediel_sol  =         0.00000000
  ---------------------------------------------------
  free energy    TOTEN  =       -77.26370178 eV

  energy without entropy =      -77.26370178  energy(sigma->0) =      -77.26370178


--------------------------------------------------------------------------------------------------------




--------------------------------------- Iteration      1(   9)  ---------------------------------------


    POTLOK:  cpu time      8.8291: real time      8.8401
    SETDIJ:  cpu time      1.2939: real time      1.2954
     EDDAV:  cpu time      3.0382: real time      3.0422
       DOS:  cpu time      0.0011: real time      0.0010
    CHARGE:  cpu time      0.3055: real time      0.3055
    MIXING:  cpu time      0.0361: real time      0.0361
    --------------------------------------------
      LOOP:  cpu time     13.5039: real time     13.5203

 eigenvalue-minimisations  :   312
 total energy-change (2. order) :-0.4984755E+00  (-0.1560902E-01)
 number of electron      35.9999999 magnetization      10.3031186
 augmentation part        0.9788175 magnetization      10.2962134

 Broyden mixing:
  rms(total) = 0.21970E+00    rms(broyden)= 0.21970E+00
  rms(prec ) = 0.22137E+00
  weight for this iteration     100.00

 eigenvalues of (default mixing * dielectric matrix)
  average eigenvalue GAMMA=   1.2808
  2.3743  1.2579  0.8272  0.6638

 Free energy of the ion-electron system (eV)
  ---------------------------------------------------
  alpha Z        PSCENC =         0.73779585
  Ewald energy   TEWEN  =      2932.97672975
  -Hartree energ DENC   =     -3911.29195801
  -exchange      EXHF   =         0.00000000
  -V(xc)+E(xc)   XCENC  =       121.97656004
  PAW double counting   =      3057.83940126    -3061.02770379
  entropy T*S    EENTRO =        -0.00000000
  eigenvalues    EBANDS =      -461.23090410
  atomic energy  EATOM  =      1242.25790175
  Solvation  Ediel_sol  =         0.00000000
  ---------------------------------------------------
  free energy    TOTEN  =       -77.76217724 eV

  energy without entropy =      -77.76217724  energy(sigma->0) =      -77.76217724


--------------------------------------------------------------------------------------------------------




--------------------------------------- Iteration      1(  10)  ---------------------------------------


    POTLOK:  cpu time      8.7101: real time      8.7199
    SETDIJ:  cpu time      1.2942: real time      1.2956
     EDDAV:  cpu time      2.6037: real time      2.6075
       DOS:  cpu time      0.0011: real time      0.0011
    CHARGE:  cpu time      0.3021: real time      0.3026
    MIXING:  cpu time      0.0365: real time      0.0365
    --------------------------------------------
      LOOP:  cpu time     12.9478: real time     12.9633

 eigenvalue-minimisations  :   264
 total energy-change (2. order) :-0.2773370E+00  (-0.2905311E-02)
 number of electron      35.9999999 magnetization       9.2957996
 augmentation part        0.9780649 magnetization       9.2923335

 Broyden mixing:
  rms(total) = 0.17371E+00    rms(broyden)= 0.17371E+00
  rms(prec ) = 0.17489E+00
  weight for this iteration     100.00

 eigenvalues of (default mixing * dielectric matrix)
  average eigenvalue GAMMA=   1.2944
  2.4662  1.5793  0.9476  0.8342  0.6447

 Free energy of the ion-electron system (eV)
  ---------------------------------------------------
  alpha Z        PSCENC =         0.73779585
  Ewald energy   TEWEN  =      2932.97672975
  -Hartree energ DENC   =     -3915.95929725
  -exchange      EXHF   =         0.00000000
  -V(xc)+E(xc)   XCENC  =       121.86169609
  PAW double counting   =      3114.37872312    -3117.53221551
  entropy T*S    EENTRO =        -0.00000000
  eigenvalues    EBANDS =      -456.76084804
  atomic energy  EATOM  =      1242.25790175
  Solvation  Ediel_sol  =         0.00000000
  ---------------------------------------------------
  free energy    TOTEN  =       -78.03951424 eV

  energy without entropy =      -78.03951424  energy(sigma->0) =      -78.03951424


--------------------------------------------------------------------------------------------------------




--------------------------------------- Iteration      1(  11)  ---------------------------------------


    POTLOK:  cpu time      8.7180: real time      8.7290
    SETDIJ:  cpu time      1.2968: real time      1.2976
     EDDAV:  cpu time      2.8142: real time      2.8185
       DOS:  cpu time      0.0010: real time      0.0010
    CHARGE:  cpu time      0.3019: real time      0.3029
    MIXING:  cpu time      0.0413: real time      0.0413
    --------------------------------------------
      LOOP:  cpu time     13.1732: real time     13.1904

 eigenvalue-minimisations  :   288
 total energy-change (2. order) :-0.2282608E+00  (-0.1633366E-02)
 number of electron      35.9999999 magnetization       7.8166819
 augmentation part        0.9779381 magnetization       7.8140362

 Broyden mixing:
  rms(total) = 0.14053E+00    rms(broyden)= 0.14053E+00
  rms(prec ) = 0.14120E+00
  weight for this iteration     100.00

 eigenvalues of (default mixing * dielectric matrix)
  average eigenvalue GAMMA=   1.4334
  2.9461  2.2102  1.2113  0.8422  0.7582  0.6325

 Free energy of the ion-electron system (eV)
  ---------------------------------------------------
  alpha Z        PSCENC =         0.73779585
  Ewald energy   TEWEN  =      2932.97672975
  -Hartree energ DENC   =     -3921.05756358
  -exchange      EXHF   =         0.00000000
  -V(xc)+E(xc)   XCENC  =       121.73430573
  PAW double counting   =      3103.08476736    -3106.20992888
  entropy T*S    EENTRO =        -0.00000000
  eigenvalues    EBANDS =      -451.79178298
  atomic energy  EATOM  =      1242.25790175
  Solvation  Ediel_sol  =         0.00000000
  ---------------------------------------------------
  free energy    TOTEN  =       -78.26777501 eV

  energy without entropy =      -78.26777501  energy(sigma->0) =      -78.26777501


--------------------------------------------------------------------------------------------------------




--------------------------------------- Iteration      1(  12)  ---------------------------------------


    POTLOK:  cpu time      8.7770: real time      8.7858
    SETDIJ:  cpu time      1.2966: real time      1.2981
     EDDAV:  cpu time      2.0331: real time      2.0358
       DOS:  cpu time      0.0012: real time      0.0012
    CHARGE:  cpu time      0.3016: real time      0.3016
    MIXING:  cpu time      0.0424: real time      0.0424
    --------------------------------------------
      LOOP:  cpu time     12.4519: real time     12.4648

 eigenvalue-minimisations  :   192
 total energy-change (2. order) :-0.1669561E+00  (-0.2464374E-02)
 number of electron      35.9999999 magnetization       6.2123778
 augmentation part        0.9777939 magnetization       6.2111137

 Broyden mixing:
  rms(total) = 0.10625E+00    rms(broyden)= 0.10625E+00
  rms(prec ) = 0.10652E+00
  weight for this iteration     100.00

 eigenvalues of (default mixing * dielectric matrix)
  average eigenvalue GAMMA=   1.6832
  4.7340  2.3379  1.5181  1.0169  0.8359  0.7125  0.6270

 Free energy of the ion-electron system (eV)
  ---------------------------------------------------
  alpha Z        PSCENC =         0.73779585
  Ewald energy   TEWEN  =      2932.97672975
  -Hartree energ DENC   =     -3927.68948736
  -exchange      EXHF   =         0.00000000
  -V(xc)+E(xc)   XCENC  =       121.67412041
  PAW double counting   =      3070.73068824    -3073.84169285
  entropy T*S    EENTRO =        -0.00000000
  eigenvalues    EBANDS =      -445.28078688
  atomic energy  EATOM  =      1242.25790175
  Solvation  Ediel_sol  =         0.00000000
  ---------------------------------------------------
  free energy    TOTEN  =       -78.43473110 eV

  energy without entropy =      -78.43473110  energy(sigma->0) =      -78.43473110


--------------------------------------------------------------------------------------------------------




--------------------------------------- Iteration      1(  13)  ---------------------------------------


    POTLOK:  cpu time      8.7180: real time      8.7288
    SETDIJ:  cpu time      1.2992: real time      1.3007
     EDDAV:  cpu time      2.4334: real time      2.4377
       DOS:  cpu time      0.0010: real time      0.0010
    CHARGE:  cpu time      0.3064: real time      0.3074
    MIXING:  cpu time      0.0480: real time      0.0480
    --------------------------------------------
      LOOP:  cpu time     12.8060: real time     12.8234

 eigenvalue-minimisations  :   240
 total energy-change (2. order) :-0.1009732E+00  (-0.2157709E-02)
 number of electron      35.9999999 magnetization       4.5832346
 augmentation part        0.9766418 magnetization       4.5832248

 Broyden mixing:
  rms(total) = 0.79525E-01    rms(broyden)= 0.79524E-01
  rms(prec ) = 0.79726E-01
  weight for this iteration     100.00

 eigenvalues of (default mixing * dielectric matrix)
  average eigenvalue GAMMA=   1.8683
  6.3088  2.4540  1.8179  1.2607  0.9363  0.8475  0.6939  0.6269

 Free energy of the ion-electron system (eV)
  ---------------------------------------------------
  alpha Z        PSCENC =         0.73779585
  Ewald energy   TEWEN  =      2932.97672975
  -Hartree energ DENC   =     -3933.35739107
  -exchange      EXHF   =         0.00000000
  -V(xc)+E(xc)   XCENC  =       121.67056349
  PAW double counting   =      3041.47163667    -3044.58841321
  entropy T*S    EENTRO =        -0.00000000
  eigenvalues    EBANDS =      -439.70452754
  atomic energy  EATOM  =      1242.25790175
  Solvation  Ediel_sol  =         0.00000000
  ---------------------------------------------------
  free energy    TOTEN  =       -78.53570431 eV

  energy without entropy =      -78.53570431  energy(sigma->0) =      -78.53570431


--------------------------------------------------------------------------------------------------------




--------------------------------------- Iteration      1(  14)  ---------------------------------------


    POTLOK:  cpu time      9.1316: real time      9.1409
    SETDIJ:  cpu time      1.3007: real time      1.3016
     EDDAV:  cpu time      2.0363: real time      2.0405
       DOS:  cpu time      0.0012: real time      0.0012
    CHARGE:  cpu time      0.3036: real time      0.3043
    MIXING:  cpu time      0.0464: real time      0.0464
    --------------------------------------------
      LOOP:  cpu time     12.8198: real time     12.8348

 eigenvalue-minimisations  :   192
 total energy-change (2. order) :-0.7750934E-01  (-0.1647846E-02)
 number of electron      35.9999999 magnetization       3.5066362
 augmentation part        0.9754289 magnetization       3.5068764

 Broyden mixing:
  rms(total) = 0.57115E-01    rms(broyden)= 0.57115E-01
  rms(prec ) = 0.57331E-01
  weight for this iteration     100.00

 eigenvalues of (default mixing * dielectric matrix)
  average eigenvalue GAMMA=   2.1169
  8.5639  2.8477  2.2298  1.4666  1.0092  0.8181  0.8181  0.6729  0.6259

 Free energy of the ion-electron system (eV)
  ---------------------------------------------------
  alpha Z        PSCENC =         0.73779585
  Ewald energy   TEWEN  =      2932.97672975
  -Hartree energ DENC   =     -3935.63244518
  -exchange      EXHF   =         0.00000000
  -V(xc)+E(xc)   XCENC  =       121.62435268
  PAW double counting   =      3031.78286607    -3034.91004572
  entropy T*S    EENTRO =        -0.00000000
  eigenvalues    EBANDS =      -437.45036885
  atomic energy  EATOM  =      1242.25790175
  Solvation  Ediel_sol  =         0.00000000
  ---------------------------------------------------
  free energy    TOTEN  =       -78.61321365 eV

  energy without entropy =      -78.61321365  energy(sigma->0) =      -78.61321365


--------------------------------------------------------------------------------------------------------




--------------------------------------- Iteration      1(  15)  ---------------------------------------


    POTLOK:  cpu time      8.7094: real time      8.7187
    SETDIJ:  cpu time      1.2975: real time      1.2983
     EDDAV:  cpu time      2.8042: real time      2.8089
       DOS:  cpu time      0.0013: real time      0.0013
    CHARGE:  cpu time      0.3151: real time      0.3160
    MIXING:  cpu time      0.0498: real time      0.0498
    --------------------------------------------
      LOOP:  cpu time     13.1773: real time     13.1931

 eigenvalue-minimisations  :   288
 total energy-change (2. order) :-0.3650478E-01  (-0.8074742E-03)
 number of electron      35.9999999 magnetization       2.6113602
 augmentation part        0.9752577 magnetization       2.6113388

 Broyden mixing:
  rms(total) = 0.44705E-01    rms(broyden)= 0.44705E-01
  rms(prec ) = 0.44939E-01
  weight for this iteration     100.00

 eigenvalues of (default mixing * dielectric matrix)
  average eigenvalue GAMMA=   2.2387
 10.1552  3.2714  2.3620  1.5585  1.1524  0.9905  0.8625  0.7397  0.6703  0.6241

 Free energy of the ion-electron system (eV)
  ---------------------------------------------------
  alpha Z        PSCENC =         0.73779585
  Ewald energy   TEWEN  =      2932.97672975
  -Hartree energ DENC   =     -3935.68696029
  -exchange      EXHF   =         0.00000000
  -V(xc)+E(xc)   XCENC  =       121.57542557
  PAW double counting   =      3041.66815514    -3044.79582255
  entropy T*S    EENTRO =        -0.00000000
  eigenvalues    EBANDS =      -437.38294364
  atomic energy  EATOM  =      1242.25790175
  Solvation  Ediel_sol  =         0.00000000
  ---------------------------------------------------
  free energy    TOTEN  =       -78.64971843 eV

  energy without entropy =      -78.64971843  energy(sigma->0) =      -78.64971843


--------------------------------------------------------------------------------------------------------




--------------------------------------- Iteration      1(  16)  ---------------------------------------


    POTLOK:  cpu time      8.7716: real time      8.7826
    SETDIJ:  cpu time      1.2980: real time      1.2988
     EDDAV:  cpu time      2.0483: real time      2.0508
       DOS:  cpu time      0.0011: real time      0.0011
    CHARGE:  cpu time      0.3049: real time      0.3061
    MIXING:  cpu time      0.0564: real time      0.0564
    --------------------------------------------
      LOOP:  cpu time     12.4804: real time     12.4960

 eigenvalue-minimisations  :   192
 total energy-change (2. order) :-0.1854459E-01  (-0.4291339E-03)
 number of electron      35.9999999 magnetization       1.8705864
 augmentation part        0.9759994 magnetization       1.8703197

 Broyden mixing:
  rms(total) = 0.34992E-01    rms(broyden)= 0.34992E-01
  rms(prec ) = 0.35158E-01
  weight for this iteration     100.00

 eigenvalues of (default mixing * dielectric matrix)
  average eigenvalue GAMMA=   2.3658
 11.6658  3.8978  2.4375  1.8910  1.4316  0.9932  0.8596  0.8596  0.6229  0.6985
  0.6661

 Free energy of the ion-electron system (eV)
  ---------------------------------------------------
  alpha Z        PSCENC =         0.73779585
  Ewald energy   TEWEN  =      2932.97672975
  -Hartree energ DENC   =     -3934.64054754
  -exchange      EXHF   =         0.00000000
  -V(xc)+E(xc)   XCENC  =       121.51948460
  PAW double counting   =      3057.20989182    -3060.33274692
  entropy T*S    EENTRO =        -0.00000000
  eigenvalues    EBANDS =      -438.39677234
  atomic energy  EATOM  =      1242.25790175
  Solvation  Ediel_sol  =         0.00000000
  ---------------------------------------------------
  free energy    TOTEN  =       -78.66826302 eV

  energy without entropy =      -78.66826302  energy(sigma->0) =      -78.66826302


--------------------------------------------------------------------------------------------------------




--------------------------------------- Iteration      1(  17)  ---------------------------------------


    POTLOK:  cpu time      8.7498: real time      8.7595
    SETDIJ:  cpu time      1.2974: real time      1.2982
     EDDAV:  cpu time      2.8061: real time      2.8103
       DOS:  cpu time      0.0011: real time      0.0011
    CHARGE:  cpu time      0.3007: real time      0.3006
    MIXING:  cpu time      0.0594: real time      0.0604
    --------------------------------------------
      LOOP:  cpu time     13.2145: real time     13.2303

 eigenvalue-minimisations  :   288
 total energy-change (2. order) :-0.1213143E-01  (-0.1975719E-03)
 number of electron      35.9999999 magnetization       1.1597306
 augmentation part        0.9762057 magnetization       1.1594880

 Broyden mixing:
  rms(total) = 0.27371E-01    rms(broyden)= 0.27371E-01
  rms(prec ) = 0.27510E-01
  weight for this iteration     100.00

 eigenvalues of (default mixing * dielectric matrix)
  average eigenvalue GAMMA=   2.4290
 12.6454  4.4920  2.5343  2.2633  1.5021  1.0221  1.0221  0.8800  0.8123  0.7044
  0.6218  0.6482

 Free energy of the ion-electron system (eV)
  ---------------------------------------------------
  alpha Z        PSCENC =         0.73779585
  Ewald energy   TEWEN  =      2932.97672975
  -Hartree energ DENC   =     -3933.57503189
  -exchange      EXHF   =         0.00000000
  -V(xc)+E(xc)   XCENC  =       121.47899286
  PAW double counting   =      3062.81067582    -3065.93127916
  entropy T*S    EENTRO =        -0.00000000
  eigenvalues    EBANDS =      -439.43617942
  atomic energy  EATOM  =      1242.25790175
  Solvation  Ediel_sol  =         0.00000000
  ---------------------------------------------------
  free energy    TOTEN  =       -78.68039445 eV

  energy without entropy =      -78.68039445  energy(sigma->0) =      -78.68039445


--------------------------------------------------------------------------------------------------------




--------------------------------------- Iteration      1(  18)  ---------------------------------------


    POTLOK:  cpu time      8.7992: real time      8.8093
    SETDIJ:  cpu time      1.3004: real time      1.3020
     EDDAV:  cpu time      3.1376: real time      3.1416
       DOS:  cpu time      0.0011: real time      0.0011
    CHARGE:  cpu time      0.3006: real time      0.3014
    MIXING:  cpu time      0.0722: real time      0.0722
    --------------------------------------------
      LOOP:  cpu time     13.6111: real time     13.6276

 eigenvalue-minimisations  :   312
 total energy-change (2. order) :-0.5616286E-02  (-0.1749108E-03)
 number of electron      35.9999999 magnetization       0.5554224
 augmentation part        0.9757539 magnetization       0.5553437

 Broyden mixing:
  rms(total) = 0.18698E-01    rms(broyden)= 0.18698E-01
  rms(prec ) = 0.18811E-01
  weight for this iteration     100.00

 eigenvalues of (default mixing * dielectric matrix)
  average eigenvalue GAMMA=   2.7355
 15.0788  6.3778  3.2048  2.3813  1.7007  1.3638  0.9915  0.8872  0.8872  0.7370
  0.6963  0.6192  0.6355

 Free energy of the ion-electron system (eV)
  ---------------------------------------------------
  alpha Z        PSCENC =         0.73779585
  Ewald energy   TEWEN  =      2932.97672975
  -Hartree energ DENC   =     -3932.59313076
  -exchange      EXHF   =         0.00000000
  -V(xc)+E(xc)   XCENC  =       121.46211552
  PAW double counting   =      3058.84203069    -3061.96319174
  entropy T*S    EENTRO =        -0.00000000
  eigenvalues    EBANDS =      -440.40626179
  atomic energy  EATOM  =      1242.25790175
  Solvation  Ediel_sol  =         0.00000000
  ---------------------------------------------------
  free energy    TOTEN  =       -78.68601073 eV

  energy without entropy =      -78.68601073  energy(sigma->0) =      -78.68601073


--------------------------------------------------------------------------------------------------------




--------------------------------------- Iteration      1(  19)  ---------------------------------------


    POTLOK:  cpu time      8.7189: real time      8.7281
    SETDIJ:  cpu time      1.2992: real time      1.3009
     EDDAV:  cpu time      2.2191: real time      2.2215
       DOS:  cpu time      0.0012: real time      0.0013
    CHARGE:  cpu time      0.3012: real time      0.3022
    MIXING:  cpu time      0.0692: real time      0.0692
    --------------------------------------------
      LOOP:  cpu time     12.6088: real time     12.6231

 eigenvalue-minimisations  :   216
 total energy-change (2. order) :-0.1062010E-02  (-0.9673743E-04)
 number of electron      35.9999999 magnetization       0.3496441
 augmentation part        0.9756532 magnetization       0.3497054

 Broyden mixing:
  rms(total) = 0.12734E-01    rms(broyden)= 0.12733E-01
  rms(prec ) = 0.12886E-01
  weight for this iteration     100.00

 eigenvalues of (default mixing * dielectric matrix)
  average eigenvalue GAMMA=   2.7687
 16.3594  7.0847  3.3198  2.3429  1.8743  1.4120  0.9859  0.9859  0.8732  0.8637
  0.7362  0.6726  0.6202  0.6314

 Free energy of the ion-electron system (eV)
  ---------------------------------------------------
  alpha Z        PSCENC =         0.73779585
  Ewald energy   TEWEN  =      2932.97672975
  -Hartree energ DENC   =     -3931.77132606
  -exchange      EXHF   =         0.00000000
  -V(xc)+E(xc)   XCENC  =       121.45710174
  PAW double counting   =      3054.25334767    -3057.37591783
  entropy T*S    EENTRO =        -0.00000000
  eigenvalues    EBANDS =      -441.22270560
  atomic energy  EATOM  =      1242.25790175
  Solvation  Ediel_sol  =         0.00000000
  ---------------------------------------------------
  free energy    TOTEN  =       -78.68707274 eV

  energy without entropy =      -78.68707274  energy(sigma->0) =      -78.68707274


--------------------------------------------------------------------------------------------------------




--------------------------------------- Iteration      1(  20)  ---------------------------------------


    POTLOK:  cpu time      8.6916: real time      8.7013
    SETDIJ:  cpu time      1.3013: real time      1.3021
     EDDAV:  cpu time      2.4245: real time      2.4283
       DOS:  cpu time      0.0010: real time      0.0010
    CHARGE:  cpu time      0.3081: real time      0.3081
    MIXING:  cpu time      0.0761: real time      0.0761
    --------------------------------------------
      LOOP:  cpu time     12.8025: real time     12.8168

 eigenvalue-minimisations  :   240
 total energy-change (2. order) : 0.2293167E-03  (-0.4777989E-04)
 number of electron      35.9999999 magnetization       0.1567604
 augmentation part        0.9759671 magnetization       0.1567996

 Broyden mixing:
  rms(total) = 0.87761E-02    rms(broyden)= 0.87758E-02
  rms(prec ) = 0.88927E-02
  weight for this iteration     100.00

 eigenvalues of (default mixing * dielectric matrix)
  average eigenvalue GAMMA=   2.9124
 18.1685  8.0119  3.5498  2.4674  2.3706  1.5503  1.1007  1.1007  1.0096  0.8820
  0.8347  0.7164  0.6755  0.6186  0.6287

 Free energy of the ion-electron system (eV)
  ---------------------------------------------------
  alpha Z        PSCENC =         0.73779585
  Ewald energy   TEWEN  =      2932.97672975
  -Hartree energ DENC   =     -3931.54084787
  -exchange      EXHF   =         0.00000000
  -V(xc)+E(xc)   XCENC  =       121.45710049
  PAW double counting   =      3053.57696877    -3056.70062258
  entropy T*S    EENTRO =        -0.00000000
  eigenvalues    EBANDS =      -441.45186959
  atomic energy  EATOM  =      1242.25790175
  Solvation  Ediel_sol  =         0.00000000
  ---------------------------------------------------
  free energy    TOTEN  =       -78.68684343 eV

  energy without entropy =      -78.68684343  energy(sigma->0) =      -78.68684343


--------------------------------------------------------------------------------------------------------




--------------------------------------- Iteration      1(  21)  ---------------------------------------


    POTLOK:  cpu time      8.7648: real time      8.7757
    SETDIJ:  cpu time      1.3000: real time      1.3008
     EDDAV:  cpu time      2.0316: real time      2.0348
       DOS:  cpu time      0.0012: real time      0.0012
    CHARGE:  cpu time      0.3047: real time      0.3048
    MIXING:  cpu time      0.0773: real time      0.0773
    --------------------------------------------
      LOOP:  cpu time     12.4796: real time     12.4947

 eigenvalue-minimisations  :   192
 total energy-change (2. order) :-0.5414398E-03  (-0.4480336E-04)
 number of electron      35.9999999 magnetization       0.0706479
 augmentation part        0.9761077 magnetization       0.0706933

 Broyden mixing:
  rms(total) = 0.56365E-02    rms(broyden)= 0.56360E-02
  rms(prec ) = 0.57213E-02
  weight for this iteration     100.00

 eigenvalues of (default mixing * dielectric matrix)
  average eigenvalue GAMMA=   2.9341
 19.2511  8.5183  3.8442  2.7384  2.3030  1.7091  1.3311  1.0257  1.0257  0.8798
  0.8798  0.8120  0.7014  0.6790  0.6172  0.6294

 Free energy of the ion-electron system (eV)
  ---------------------------------------------------
  alpha Z        PSCENC =         0.73779585
  Ewald energy   TEWEN  =      2932.97672975
  -Hartree energ DENC   =     -3931.46573958
  -exchange      EXHF   =         0.00000000
  -V(xc)+E(xc)   XCENC  =       121.45781970
  PAW double counting   =      3052.75715861    -3055.88170620
  entropy T*S    EENTRO =        -0.00000000
  eigenvalues    EBANDS =      -441.52734474
  atomic energy  EATOM  =      1242.25790175
  Solvation  Ediel_sol  =         0.00000000
  ---------------------------------------------------
  free energy    TOTEN  =       -78.68738487 eV

  energy without entropy =      -78.68738487  energy(sigma->0) =      -78.68738487


--------------------------------------------------------------------------------------------------------




--------------------------------------- Iteration      1(  22)  ---------------------------------------


    POTLOK:  cpu time      8.6726: real time      8.6829
    SETDIJ:  cpu time      1.2973: real time      1.2984
     EDDAV:  cpu time      2.0333: real time      2.0359
       DOS:  cpu time      0.0011: real time      0.0011
    CHARGE:  cpu time      0.3054: real time      0.3064
    MIXING:  cpu time      0.0814: real time      0.0814
    --------------------------------------------
      LOOP:  cpu time     12.3912: real time     12.4062

 eigenvalue-minimisations  :   192
 total energy-change (2. order) : 0.5404777E-03  (-0.3754441E-04)
 number of electron      35.9999999 magnetization       0.0212617
 augmentation part        0.9760571 magnetization       0.0212863

 Broyden mixing:
  rms(total) = 0.33789E-02    rms(broyden)= 0.33783E-02
  rms(prec ) = 0.34297E-02
  weight for this iteration     100.00

 eigenvalues of (default mixing * dielectric matrix)
  average eigenvalue GAMMA=   3.0157
 20.4015  9.1061  4.5735  3.0470  2.3362  2.0281  1.4521  1.1234  1.1234  0.9982
  0.8673  0.8673  0.7462  0.6914  0.6600  0.6283  0.6167

 Free energy of the ion-electron system (eV)
  ---------------------------------------------------
  alpha Z        PSCENC =         0.73779585
  Ewald energy   TEWEN  =      2932.97672975
  -Hartree energ DENC   =     -3931.54229872
  -exchange      EXHF   =         0.00000000
  -V(xc)+E(xc)   XCENC  =       121.45907547
  PAW double counting   =      3053.59698793    -3056.72092564
  entropy T*S    EENTRO =        -0.00000000
  eigenvalues    EBANDS =      -441.45211077
  atomic energy  EATOM  =      1242.25790175
  Solvation  Ediel_sol  =         0.00000000
  ---------------------------------------------------
  free energy    TOTEN  =       -78.68684439 eV

  energy without entropy =      -78.68684439  energy(sigma->0) =      -78.68684439


--------------------------------------------------------------------------------------------------------




--------------------------------------- Iteration      1(  23)  ---------------------------------------


    POTLOK:  cpu time      8.8213: real time      8.8320
    SETDIJ:  cpu time      1.3038: real time      1.3047
     EDDAV:  cpu time      2.0388: real time      2.0411
       DOS:  cpu time      0.0034: real time      0.0034
    CHARGE:  cpu time      0.3079: real time      0.3088
    MIXING:  cpu time      0.0932: real time      0.0933
    --------------------------------------------
      LOOP:  cpu time     12.5681: real time     12.5832

 eigenvalue-minimisations  :   192
[...]
  248        set_dd_paw                            1.287340                            1   3
  249          set_rsgf_all                          0.000002                          1   4
  250          m_sumb_d                              1.287162                          7   4
  251        strkin                                0.002538                            1   3
  252          m_sumb_d                              0.000481                          1   4
  253        strelo                                0.021058                            1   3
  254          m_sumb_d                              0.001860                          2   4
  255        strnlr                                1.967051                            1   3
  256          rspher_all                            0.030008                          9   4
  257          phaser                                0.000004                          9   4
  258          rpro_isp                              1.936146                          9   4
  259            fftwav_mpi                            1.917234                       36   5
  260              fft3d_mpi                             1.589855                     36   6
  261                fftbrc_mpi                            1.240063                   36   7
  262                  fftbas_plan_mpi                       1.239973                 36   8
  263                    dfftw_execute                         0.477366              108   9
  264                    map_forward                           0.728696               72   9
  265                      map_gather                            0.163438             36  10
  266                      m_alltoallv_z                         0.088915             36  10
  267                      map_scatter                           0.226195             36  10
  268            rpromu                                0.017827                       18   5
  269              rpromu_gemm                           0.004894                    252   6
  270              m_sumb_d                              0.002688                     36   6
  271          m_sumb_d                              0.000060                          1   4
  272        m_sumb_d                              0.010029                            7   3
  273        fft3d_mpi                             1.593410                           82   3
  274          fftbrc_mpi                            1.469920                         82   4
  275            fftbas_plan_mpi                       1.469688                       82   5
  276              dfftw_execute                         0.383064                    246   6
  277              map_forward                           0.498642                     80   6
  278                map_gather                            0.057161                   40   7
  279                m_alltoallv_z                         0.355372                   40   7
  280                map_scatter                           0.084905                   40   7
  281              map_backward                          0.526631                     84   6
  282                map_gather                            0.058553                   42   7
  283                m_alltoallv_z                         0.255009                   42   7
  284                map_scatter                           0.211847                   42   7
  285        forhar                                0.083084                            2   3
  286          m_sumb_d                              0.000739                          2   4
  287        strehar                               0.014532                            1   3
  288          m_sumb_d                              0.000861                          1   4
  289        chggra                                0.077010                            1   3
  290          fft3d_mpi                             0.053018                          3   4
  291            fftbrc_mpi                            0.049019                        3   5
  292              fftbas_plan_mpi                       0.049005                      3   6
  293                dfftw_execute                         0.015826                    9   7
  294                map_backward                          0.013014                    2   7
  295                  map_gather                            0.001549                  1   8
  296                  m_alltoallv_z                         0.008143                  1   8
  297                  map_scatter                           0.003288                  1   8
  298                map_forward                           0.017576                    4   7
  299                  map_gather                            0.004823                  2   8
  300                  m_alltoallv_z                         0.009560                  2   8
  301                  map_scatter                           0.003125                  2   8
  302          m_sumb_d                              0.000127                          2   4
  303          pothar                                0.005551                          1   4
  304            m_sumb_d                              0.001709                        1   5
  305        brmix                                 0.184586                            1   3
  306          m_sumb_d                              0.000397                          6   4
  307          brpre                                 0.000490                          2   4
  308          setg0                                 0.006295                          1   4
  309          broyd                                 0.155434                          1   4
  310            m_sumb_d                              0.005839                       37   5
  311            brsav                                 0.005368                       36   5
  312            brget                                 0.027268                      189   5
  313        m_bcast_d                             0.000936                            2   3
  314      potlok                                8.854221                              1   2
  315        fft3d_mpi                             1.572564                           86   3
  316          fftbrc_mpi                            1.447413                         86   4
  317            fftbas_plan_mpi                       1.447138                       86   5
  318              dfftw_execute                         0.409178                    258   6
  319              map_forward                           0.450997                     88   6
  320                map_gather                            0.067402                   46   7
  321                m_alltoallv_z                         0.290354                   46   7
  322                map_scatter                           0.091941                   46   7
  323              map_backward                          0.521536                     84   6
  324                map_gather                            0.058991                   42   7
  325                m_alltoallv_z                         0.256501                   42   7
  326                map_scatter                           0.204848                   42   7
  327        m_sumb_d                              0.063190                            6   3
  328        pothar                                0.002670                            1   3
  329          m_sumb_d                              0.000097                          1   4
  330        m_bcast_d                             0.012915                            2   3
  331      potlok_metagga                        0.000002                              1   2
  332      set_dd_magatom                        0.000001                              1   2
  333      set_dd_paw                            1.292264                              1   2
  334        set_rsgf_all                          0.000001                            1   3
  335        m_sumb_d                              1.292089                            7   3
  336      m_bcast_d                             0.000124                              2   2
  337      densta                                0.000560                              1   2
  338        m_sumb_d                              0.000481                            8   3
 
 Flat profile
 ============
 
             routine name                   CPU           calls
 ---------------------------------------------------------------
 potlok                                229.561000          32
 m_sumb_d                               46.593647        5777
 dfftw_execute                          31.812069       13389
 m_alltoallv_z                          23.516590        4589
 total_time                             20.982310           1
 fft3d_mpi                              18.765270        4463
 map_scatter                            18.324613        4589
 map_gather                             11.717759        4589
 fftwav_mpi                             10.560400         992
 map_forward                             7.876008        4886
 vhamil                                  7.705793         509
 force_and_stress                        7.092213           1
 m_alltoall_d                            4.725485        3723
 fftbas_plan_mpi                         3.379535        4463
 orth1                                   1.865841        1531
 lapack                                  1.511562         509
 soft_charge                             1.425920          31
 broyd                                   1.318195          31
 redis_pw                                1.168167        1531
 ggemm                                   1.116401         649
 eddav                                   1.031299          35
 eccp                                    0.815796         140
 w1_copy                                 0.740804        1527
 m_bcast_d                               0.563929        1595
 m_bcast_z                               0.559031         100
 fftext_mpi                              0.527569         509
 pw_charge                               0.520003          62
 brmix                                   0.469311          31
 brget                                   0.418498        2892
 setdij_                                 0.409739          59
 augmentation_charge                     0.381493          31
 elmin                                   0.308366           1
 kinhamil                                0.255341         509
 apply_precond                           0.251472         369
 setg0                                   0.214386          33
 racc0                                   0.198887         509
 lincom                                  0.157642          72
 rpro1                                   0.132655         369
 set_charge                              0.119839          31
 brsav                                   0.106961         626
 pothar                                  0.100597          33
 forhar                                  0.082345           2
 setup_precond                           0.065751         140
 map_backward                            0.064152        4040
 forloc                                  0.055178           1
 fft_gq                                  0.051540          31
 inisym                                  0.044552           1
 rspher_all                              0.044063          14
 stufak                                  0.036803           1
 redis_proj                              0.031914        1902
 strelo                                  0.019198           1
 overl                                   0.018981         880
 chggra                                  0.018314           1
 overl1                                  0.016841         509
 fftbrc_mpi                              0.015618        4463
 choleski                                0.015313           2
 rpromu                                  0.015019          26
 hamiltmu                                0.014378         509
 brpre                                   0.014010          62
 strehar                                 0.013671           1
 rpromu_gemm                             0.011688         364
 rpro_isp                                0.011191          13
 newband                                 0.010820         579
 raccmu_                                 0.008807         509
 set_dd_paw                              0.008417          33
 fewald                                  0.005037           1
 densta                                  0.003754          36
 w1_projall                              0.002127         369
 strkin                                  0.002057           1
 depsum                                  0.001572          31
 brgrid                                  0.001570           1
 rsp                                     0.001161           1
 strnlr                                  0.000834           1
 truncate_high_frequency_w1              0.000702         649
 orthch                                  0.000610           1
 vectorpot                               0.000354          32
 fordep                                  0.000308           1
 fornlr                                  0.000243           1
 crpa_reader                             0.000234           1
 potlok_metagga                          0.000221          32
 rcp                                     0.000115           1
 set_rsgf_all                            0.000080          33
 phaser                                  0.000055          83
 set_dd_magatom                          0.000043          33
 rotate_active_occupied_orbital          0.000028           1
 posmap                                  0.000025           2
 proall                                  0.000019           1
 redis_pw_over_bands                     0.000000           1
 ---------------------------------------------------------------
  summed up times    460.012109041214     
 
 Accumulative profile
 ====================
 
             routine name                   CPU           calls
 ---------------------------------------------------------------
 total_time                            460.012109           1
 elmin                                 414.255575           1
 potlok                                281.883359          32
 fft3d_mpi                             115.471614        4463
 fftbrc_mpi                             96.706344        4463
 fftbas_plan_mpi                        96.690726        4463
 eddav                                  89.037336          35
 fftwav_mpi                             55.561459         992
 m_sumb_d                               46.593647        5777
 set_dd_paw                             42.603266          33
 map_forward                            36.918578        4886
 dfftw_execute                          31.812069       13389
 hamiltmu                               25.051906         509
 map_backward                           24.580544        4040
 m_alltoallv_z                          23.516590        4589
 map_scatter                            18.324613        4589
 kinhamil                               16.883742         509
 fftext_mpi                             16.628400         509
 force_and_stress                       13.572675           1
 map_gather                             11.717759        4589
 set_charge                              9.403117          31
 newband                                 9.320240         579
 vhamil                                  7.705793         509
 soft_charge                             7.654858          31
 redis_pw                                4.811364        1531
 m_alltoall_d                            4.725485        3723
 rpro_isp                                2.847438          13
 brmix                                   2.660777          31
 strnlr                                  1.967051           1
 broyd                                   1.942939          31
 orth1                                   1.865841        1531
 augmentation_charge                     1.583458          31
 lapack                                  1.511562         509
 ggemm                                   1.116401         649
 redis_proj                              1.114202        1902
 eccp                                    0.849389         140
 w1_copy                                 0.740804        1527
 fornlr                                  0.679611           1
 fft_gq                                  0.658457          31
 m_bcast_d                               0.563929        1595
 m_bcast_z                               0.559031         100
 pw_charge                               0.520003          62
 raccmu_                                 0.447993         509
 setdij_                                 0.439380          59
 racc0                                   0.422344         509
 brget                                   0.418498        2892
 proall                                  0.252938           1
 apply_precond                           0.251472         369
 w1_projall                              0.235290         369
 rpro1                                   0.233163         369
 setg0                                   0.214386          33
 lincom                                  0.157642          72
 pothar                                  0.131175          33
 brsav                                   0.106961         626
 forhar                                  0.083084           2
 orthch                                  0.081337           1
 chggra                                  0.077010           1
 setup_precond                           0.072144         140
 forloc                                  0.056743           1
 densta                                  0.049641          36
 fordep                                  0.047321           1
 depsum                                  0.044962          31
 inisym                                  0.044577           1
 rspher_all                              0.044063          14
 stufak                                  0.036803           1
 rpromu                                  0.030797          26
 strelo                                  0.021058           1
 overl                                   0.018981         880
 overl1                                  0.016841         509
 choleski                                0.015313           2
 strehar                                 0.014532           1
 brpre                                   0.014010          62
 rpromu_gemm                             0.011688         364
 fewald                                  0.008345           1
 strkin                                  0.002538           1
 brgrid                                  0.001570           1
 rsp                                     0.001161           1
 truncate_high_frequency_w1              0.000702         649
 vectorpot                               0.000354          32
 crpa_reader                             0.000234           1
 potlok_metagga                          0.000221          32
 rcp                                     0.000115           1
 set_rsgf_all                            0.000080          33
 phaser                                  0.000055          83
 set_dd_magatom                          0.000043          33
 rotate_active_occupied_orbital          0.000028           1
 posmap                                  0.000025           2
 redis_pw_over_bands                     0.000000           1
 ---------------------------------------------------------------
 
Profiling took   0.160589  0.059502  0.015343  0.014602 seconds
Profiling took   0.243202 seconds
