 vasp.6.3.2 27Jun22 (build Jul 18 2024 17:50:03) complex                         
 executed on              LinuxNV date 2024.08.13  03:49:19
 running on  144 total cores
 distrk:  each k-point on   36 cores,    4 groups
 distr:  one band on NCORE=   1 cores,   36 groups


--------------------------------------------------------------------------------------------------------


 INCAR:
   ENCUT = 600.00
   EDIFF = 1.00e-06
   EDIFFG = -0.03
   IBRION = 2
   ALGO = Normal
   ISMEAR = 0
   SIGMA = 0.05
   LCHARG = .FALSE.
   LWAVE = .FALSE.
   LREAL = Auto
   NELM = 2000
   NSW = 5000
   NCORE = 16
   KPAR = 4
   ISPIN = 2
   GGA = MK
   PARAM1 = 0.1234
   PARAM2 = 1.0
   AGGAC = 0.0
   LUSE_VDW = .TRUE.
   LASPH = .TRUE.
   LDIPOL = .TRUE.
   DIPOL = 0.5 0.5 0.5
   IDIPOL = 3

 POTCAR:    PAW_PBE Mo_sv 02Feb2006               
 POTCAR:    PAW_PBE S 06Sep2000                   
 POTCAR:    PAW_PBE H 15Jun2001                   
 POTCAR:    PAW_PBE C 08Apr2002                   
 POTCAR:    PAW_PBE F 08Apr2002                   
 -----------------------------------------------------------------------------
|                                                                             |
|           W    W    AA    RRRRR   N    N  II  N    N   GGGG   !!!           |
|           W    W   A  A   R    R  NN   N  II  NN   N  G    G  !!!           |
|           W    W  A    A  R    R  N N  N  II  N N  N  G       !!!           |
|           W WW W  AAAAAA  RRRRR   N  N N  II  N  N N  G  GGG   !            |
|           WW  WW  A    A  R   R   N   NN  II  N   NN  G    G                |
|           W    W  A    A  R    R  N    N  II  N    N   GGGG   !!!           |
|                                                                             |
|     You use a magnetic or noncollinear calculation, but did not specify     |
|     the initial magnetic moment with the MAGMOM tag. Note that a            |
|     default of 1 will be used for all atoms. This ferromagnetic setup       |
|     may break the symmetry of the crystal, in particular it may rule        |
|     out finding an antiferromagnetic solution. Thence, we recommend         |
|     setting the initial magnetic moment manually or verifying carefully     |
|     that this magnetic setup is desired.                                    |
|                                                                             |
 -----------------------------------------------------------------------------

 -----------------------------------------------------------------------------
|                                                                             |
|           W    W    AA    RRRRR   N    N  II  N    N   GGGG   !!!           |
|           W    W   A  A   R    R  NN   N  II  NN   N  G    G  !!!           |
|           W    W  A    A  R    R  N N  N  II  N N  N  G       !!!           |
|           W WW W  AAAAAA  RRRRR   N  N N  II  N  N N  G  GGG   !            |
|           WW  WW  A    A  R   R   N   NN  II  N   NN  G    G                |
|           W    W  A    A  R    R  N    N  II  N    N   GGGG   !!!           |
|                                                                             |
|     For optimal performance we recommend to set                             |
|       NCORE = 2 up to number-of-cores-per-socket                            |
|     NCORE specifies how many cores store one orbital (NPAR=cpu/NCORE).      |
|     This setting can greatly improve the performance of VASP for DFT.       |
|     The default, NCORE=1 might be grossly inefficient on modern             |
|     multi-core architectures or massively parallel machines. Do your        |
|     own testing! More info at https://www.vasp.at/wiki/index.php/NCORE      |
|     Unfortunately you need to use the default for GW and RPA                |
|     calculations (for HF NCORE is supported but not extensively tested      |
|     yet).                                                                   |
|                                                                             |
 -----------------------------------------------------------------------------

 -----------------------------------------------------------------------------
|                                                                             |
|               ----> ADVICE to this user running VASP <----                  |
|                                                                             |
|     You have switched on vdW-DFT.                                           |
|     This routine was written and supplied by Jiri Klimes. We recommend      |
|     that you carefully read and cite the following publications:            |
|       J. Klimes, D.R. Bowler, A. Michelides                                 |
|          J. Phys.: Cond Matt. 22 022201 (2010)                              |
|       J. Klimes, D.R. Bowler, A. Michelides                                 |
|          Phys. Rev. B. 83, 195131 (2011)                                    |
|     and references therein.                                                 |
|                                                                             |
 -----------------------------------------------------------------------------

 POTCAR:    PAW_PBE Mo_sv 02Feb2006               
   SHA256 =  2731df97e41766cc617548c5a8267718fdef1f509ac6bafa01e745abea2bdfaa Mo_sv/POTCAR          
   COPYR  = (c) Copyright 02Feb2006 Georg Kresse                                                    
   COPYR  = This file is part of the software VASP. Any use, copying, and all other rights are regul
   COPYR  = If you do not have a valid VASP license, you may not use, copy or distribute this file. 
   VRHFIN =Mo: 4p5s4d                                                                               
   LEXCH  = PE                                                                                      
   EATOM  =  1862.2866 eV,  136.8742 Ry                                                             
                                                                                                    
   TITEL  = PAW_PBE Mo_sv 02Feb2006                                                                 
   LULTRA =        F    use ultrasoft PP ?                                                          
   IUNSCR =        1    unscreen: 0-lin 1-nonlin 2-no                                               
   RPACOR =    2.200    partial core radius                                                         
   POMASS =   95.940; ZVAL   =   14.000    mass and valenz                                          
   RCORE  =    2.500    outmost cutoff radius                                                       
   RWIGS  =    2.750; RWIGS  =    1.455    wigner-seitz radius (au A)                               
   ENMAX  =  242.676; ENMIN  =  182.007 eV                                                          
   ICORE  =        3    local potential                                                             
   LCOR   =        T    correct aug charges                                                         
   LPAW   =        T    paw PP                                                                      
   EAUG   =  446.014                                                                                
   DEXC   =    0.000                                                                                
   RMAX   =    2.563    core radius for proj-oper                                                   
   RAUG   =    1.300    factor for augmentation sphere                                              
   RDEP   =    2.641    radius for radial grids                                                     
   RDEPT  =    2.031    core radius for aug-charge                                                  
                                                                                                    
   Atomic configuration                                                                             
   11 entries                                                                                       
     n  l   j            E        occ.                                                              
     1  0  0.50    -19819.0341   2.0000                                                             
     2  0  0.50     -2799.0127   2.0000                                                             
     2  1  1.50     -2502.0276   6.0000                                                             
     3  0  0.50      -476.4449   2.0000                                                             
     3  1  1.50      -379.1496   6.0000                                                             
     3  2  2.50      -220.9367  10.0000                                                             
     4  0  0.50       -64.3378   2.0000                                                             
     5  0  0.50        -4.0862   1.0000                                                             
     4  1  1.50       -38.4773   6.0000                                                             
     4  2  2.50        -3.7535   5.0000                                                             
     4  3  2.50        -1.3606   0.0000                                                             
   Description                                                                                      
     l       E           TYP  RCUT    TYP  RCUT                                                     
     0    -64.3377829     23  2.100                                                                 
     0     -4.0861640     23  2.400                                                                 
     1    -38.4772993     23  2.100                                                                 
     1     13.6058260     23  2.100                                                                 
     2     -3.7534941     23  2.400                                                                 
     2     -5.1140767     23  2.400                                                                 
     3     -4.0817478     23  2.500                                                                 
  local pseudopotential read in
  partial core-charges read in
  partial kinetic energy density read in
  atomic valenz-charges read in
  non local Contribution for L=            0  read in
    real space projection operators read in
  non local Contribution for L=            0  read in
    real space projection operators read in
  non local Contribution for L=            1  read in
    real space projection operators read in
  non local Contribution for L=            1  read in
    real space projection operators read in
  non local Contribution for L=            2  read in
    real space projection operators read in
  non local Contribution for L=            2  read in
    real space projection operators read in
    PAW grid and wavefunctions read in
 
   number of l-projection  operators is LMAX  =            6
   number of lm-projection operators is LMMAX =           18
 
 POTCAR:    PAW_PBE S 06Sep2000                   
   SHA256 =  0fc7481fb0695f01bdc6462160264c5c84044ae9ec85a907d398b887a2bc3132 S/POTCAR              
   COPYR  = (c) Copyright 06Sep2000 Georg Kresse                                                    
   COPYR  = This file is part of the software VASP. Any use, copying, and all other rights are regul
   COPYR  = If you do not have a valid VASP license, you may not use, copy or distribute this file. 
   VRHFIN =S : s2p4                                                                                 
   LEXCH  = PE                                                                                      
   EATOM  =   276.8230 eV,   20.3459 Ry                                                             
                                                                                                    
   TITEL  = PAW_PBE S 06Sep2000                                                                     
   LULTRA =        F    use ultrasoft PP ?                                                          
   IUNSCR =        1    unscreen: 0-lin 1-nonlin 2-no                                               
   RPACOR =    1.500    partial core radius                                                         
   POMASS =   32.066; ZVAL   =    6.000    mass and valenz                                          
   RCORE  =    1.900    outmost cutoff radius                                                       
   RWIGS  =    2.200; RWIGS  =    1.164    wigner-seitz radius (au A)                               
   ENMAX  =  258.689; ENMIN  =  194.016 eV                                                          
   ICORE  =        2    local potential                                                             
   LCOR   =        T    correct aug charges                                                         
   LPAW   =        T    paw PP                                                                      
   EAUG   =  335.092                                                                                
   DEXC   =    0.000                                                                                
   RMAX   =    1.942    core radius for proj-oper                                                   
   RAUG   =    1.300    factor for augmentation sphere                                              
   RDEP   =    1.954    radius for radial grids                                                     
   RDEPT  =    1.744    core radius for aug-charge                                                  
                                                                                                    
   Atomic configuration                                                                             
    6 entries                                                                                       
     n  l   j            E        occ.                                                              
     1  0  0.50     -2405.8406   2.0000                                                             
     2  0  0.50      -211.7007   2.0000                                                             
     2  1  1.50      -156.4958   6.0000                                                             
     3  0  0.50       -17.2562   2.0000                                                             
     3  1  0.50        -7.0085   4.0000                                                             
     3  2  1.50        -6.8029   0.0000                                                             
   Description                                                                                      
     l       E           TYP  RCUT    TYP  RCUT                                                     
     0    -17.2561641     23  1.900                                                                 
     0    -15.8743224     23  1.900                                                                 
     1     -7.0085400     23  1.900                                                                 
     1     -2.7779785     23  1.900                                                                 
     2     -6.8029130     23  1.900                                                                 
  local pseudopotential read in
  partial core-charges read in
  partial kinetic energy density read in
  atomic valenz-charges read in
  non local Contribution for L=            0  read in
    real space projection operators read in
  non local Contribution for L=            0  read in
    real space projection operators read in
  non local Contribution for L=            1  read in
    real space projection operators read in
  non local Contribution for L=            1  read in
    real space projection operators read in
    PAW grid and wavefunctions read in
 
   number of l-projection  operators is LMAX  =            4
   number of lm-projection operators is LMMAX =            8
 
 POTCAR:    PAW_PBE H 15Jun2001                   
   SHA256 =  030f79b5d3ab3cf0e668861823c8fb652ff669f3e15e46930bd03bfd63a607b6 H/POTCAR              
   COPYR  = (c) Copyright 15Jun2001 Georg Kresse                                                    
   COPYR  = This file is part of the software VASP. Any use, copying, and all other rights are regul
   COPYR  = If you do not have a valid VASP license, you may not use, copy or distribute this file. 
   VRHFIN =H: ultrasoft test                                                                        
   LEXCH  = PE                                                                                      
   EATOM  =    12.4884 eV,    0.9179 Ry                                                             
                                                                                                    
   TITEL  = PAW_PBE H 15Jun2001                                                                     
   LULTRA =        F    use ultrasoft PP ?                                                          
   IUNSCR =        0    unscreen: 0-lin 1-nonlin 2-no                                               
   RPACOR =    0.000    partial core radius                                                         
   POMASS =    1.000; ZVAL   =    1.000    mass and valenz                                          
   RCORE  =    1.100    outmost cutoff radius                                                       
   RWIGS  =    0.700; RWIGS  =    0.370    wigner-seitz radius (au A)                               
   ENMAX  =  250.000; ENMIN  =  200.000 eV                                                          
   RCLOC  =    0.701    cutoff for local pot                                                        
   LCOR   =        T    correct aug charges                                                         
   LPAW   =        T    paw PP                                                                      
   EAUG   =  400.000                                                                                
   RMAX   =    1.123    core radius for proj-oper                                                   
   RAUG   =    1.200    factor for augmentation sphere                                              
   RDEP   =    1.112    radius for radial grids                                                     
   RDEPT  =    0.926    core radius for aug-charge                                                  
                                                                                                    
   Atomic configuration                                                                             
    2 entries                                                                                       
     n  l   j            E        occ.                                                              
     1  0  0.50        -6.4927   1.0000                                                             
     2  1  0.50        -3.4015   0.0000                                                             
   Description                                                                                      
     l       E           TYP  RCUT    TYP  RCUT                                                     
     0     -6.4927494     23  1.100                                                                 
     0      6.8029130     23  1.100                                                                 
     1     -4.0817478     23  1.100                                                                 
  local pseudopotential read in
  atomic valenz-charges read in
  non local Contribution for L=            0  read in
    real space projection operators read in
  non local Contribution for L=            0  read in
    real space projection operators read in
  non local Contribution for L=            1  read in
    real space projection operators read in
    PAW grid and wavefunctions read in
 
   number of l-projection  operators is LMAX  =            3
   number of lm-projection operators is LMMAX =            5
 
 POTCAR:    PAW_PBE C 08Apr2002                   
   SHA256 =  253f7b50bb8d59471dbedb8285d89021f4a42ed1a2c5d38a03a736e69125dd95 C/POTCAR              
   COPYR  = (c) Copyright 08Apr2002 Georg Kresse                                                    
   COPYR  = This file is part of the software VASP. Any use, copying, and all other rights are regul
   COPYR  = If you do not have a valid VASP license, you may not use, copy or distribute this file. 
   VRHFIN =C: s2p2                                                                                  
   LEXCH  = PE                                                                                      
   EATOM  =   147.1560 eV,   10.8157 Ry                                                             
                                                                                                    
   TITEL  = PAW_PBE C 08Apr2002                                                                     
   LULTRA =        F    use ultrasoft PP ?                                                          
   IUNSCR =        1    unscreen: 0-lin 1-nonlin 2-no                                               
   RPACOR =    1.200    partial core radius                                                         
   POMASS =   12.011; ZVAL   =    4.000    mass and valenz                                          
   RCORE  =    1.500    outmost cutoff radius                                                       
   RWIGS  =    1.630; RWIGS  =    0.863    wigner-seitz radius (au A)                               
   ENMAX  =  400.000; ENMIN  =  300.000 eV                                                          
   ICORE  =        2    local potential                                                             
   LCOR   =        T    correct aug charges                                                         
   LPAW   =        T    paw PP                                                                      
   EAUG   =  644.873                                                                                
   DEXC   =    0.000                                                                                
   RMAX   =    1.529    core radius for proj-oper                                                   
   RAUG   =    1.300    factor for augmentation sphere                                              
   RDEP   =    1.501    radius for radial grids                                                     
   RDEPT  =    1.300    core radius for aug-charge                                                  
                                                                                                    
   Atomic configuration                                                                             
    4 entries                                                                                       
     n  l   j            E        occ.                                                              
     1  0  0.50      -273.3789   2.0000                                                             
     2  0  0.50       -13.7508   2.0000                                                             
     2  1  0.50        -5.2854   2.0000                                                             
     3  2  1.50        -5.4423   0.0000                                                             
   Description                                                                                      
     l       E           TYP  RCUT    TYP  RCUT                                                     
     0    -13.7508458     23  1.200                                                                 
     0     -8.2022199     23  1.200                                                                 
     1     -5.2854383     23  1.500                                                                 
     1     34.0145650     23  1.500                                                                 
     2     -5.4423304      7  1.500                                                                 
  local pseudopotential read in
  partial core-charges read in
  partial kinetic energy density read in
  atomic valenz-charges read in
  non local Contribution for L=            0  read in
    real space projection operators read in
  non local Contribution for L=            0  read in
    real space projection operators read in
  non local Contribution for L=            1  read in
    real space projection operators read in
  non local Contribution for L=            1  read in
    real space projection operators read in
    PAW grid and wavefunctions read in
 
   number of l-projection  operators is LMAX  =            4
   number of lm-projection operators is LMMAX =            8
 
 POTCAR:    PAW_PBE F 08Apr2002                   
   SHA256 =  53c630871ac675939349fc2b976745ee17808dedc90b5bdde026bc81f0faf456 F/POTCAR              
   COPYR  = (c) Copyright 08Apr2002 Georg Kresse                                                    
   COPYR  = This file is part of the software VASP. Any use, copying, and all other rights are regul
   COPYR  = If you do not have a valid VASP license, you may not use, copy or distribute this file. 
   VRHFIN =F: s2p5                                                                                  
   LEXCH  = PE                                                                                      
   EATOM  =   659.6475 eV,   48.4827 Ry                                                             
                                                                                                    
   TITEL  = PAW_PBE F 08Apr2002                                                                     
   LULTRA =        F    use ultrasoft PP ?                                                          
   IUNSCR =        1    unscreen: 0-lin 1-nonlin 2-no                                               
   RPACOR =    1.200    partial core radius                                                         
   POMASS =   18.998; ZVAL   =    7.000    mass and valenz                                          
   RCORE  =    1.520    outmost cutoff radius                                                       
   RWIGS  =    1.500; RWIGS  =    0.794    wigner-seitz radius (au A)                               
   ENMAX  =  400.000; ENMIN  =  300.000 eV                                                          
   ICORE  =        2    local potential                                                             
   LCOR   =        T    correct aug charges                                                         
   LPAW   =        T    paw PP                                                                      
   EAUG   =  613.614                                                                                
   RMAX   =    1.555    core radius for proj-oper                                                   
   RAUG   =    1.300    factor for augmentation sphere                                              
   RDEP   =    1.539    radius for radial grids                                                     
   RDEPT  =    1.299    core radius for aug-charge                                                  
                                                                                                    
   Atomic configuration                                                                             
    4 entries                                                                                       
     n  l   j            E        occ.                                                              
     1  0  0.50      -663.3661   2.0000                                                             
     2  0  0.50       -29.8995   2.0000                                                             
     2  1  0.50       -11.1114   5.0000                                                             
     3  2  1.50       -10.8847   0.0000                                                             
   Description                                                                                      
     l       E           TYP  RCUT    TYP  RCUT                                                     
     0    -29.8995018     23  1.200                                                                 
     0     -9.5240782     23  1.200                                                                 
     1    -11.1113914     23  1.520                                                                 
     1      1.3605826     23  1.520                                                                 
     2    -10.8846608      7  1.500                                                                 
  local pseudopotential read in
  partial core-charges read in
  partial kinetic energy density read in
  atomic valenz-charges read in
  non local Contribution for L=            0  read in
    real space projection operators read in
  non local Contribution for L=            0  read in
    real space projection operators read in
  non local Contribution for L=            1  read in
    real space projection operators read in
  non local Contribution for L=            1  read in
    real space projection operators read in
    PAW grid and wavefunctions read in
 
   number of l-projection  operators is LMAX  =            4
   number of lm-projection operators is LMMAX =            8
 
 Optimization of the real space projectors (new method)

 maximal supplied QI-value         = 15.12
 optimisation between [QCUT,QGAM] = [ 12.55, 25.10] = [ 44.09,176.36] Ry 
 Optimized for a Real-space Cutoff    1.47 Angstroem

   l    n(q)    QCUT    max X(q) W(low)/X(q) W(high)/X(q)  e(spline) 
   0     11    12.548     3.559    0.18E-04    0.60E-05    0.19E-06
   0     11    12.548    20.730    0.37E-04    0.13E-04    0.98E-07
   1     11    12.548     3.279    0.80E-06    0.70E-06    0.27E-07
   1     11    12.548     4.693    0.72E-04    0.11E-03    0.38E-06
   2     10    12.548    67.616    0.34E-03    0.45E-03    0.54E-06
   2     10    12.548    62.420    0.34E-03    0.45E-03    0.54E-06
 Optimization of the real space projectors (new method)

 maximal supplied QI-value         = 19.84
 optimisation between [QCUT,QGAM] = [ 12.50, 25.00] = [ 43.76,175.03] Ry 
 Optimized for a Real-space Cutoff    1.06 Angstroem

   l    n(q)    QCUT    max X(q) W(low)/X(q) W(high)/X(q)  e(spline) 
   0      8    12.501   187.594    0.26E-03    0.17E-03    0.97E-07
   0      8    12.501   164.243    0.26E-03    0.17E-03    0.96E-07
   1      7    12.501    67.533    0.50E-03    0.61E-03    0.91E-07
   1      7    12.501    50.729    0.48E-03    0.60E-03    0.90E-07
 Optimization of the real space projectors (new method)

 maximal supplied QI-value         = 34.20
 optimisation between [QCUT,QGAM] = [ 12.31, 24.97] = [ 42.46,174.58] Ry 
 Optimized for a Real-space Cutoff    1.00 Angstroem

   l    n(q)    QCUT    max X(q) W(low)/X(q) W(high)/X(q)  e(spline) 
   0      7    12.313    19.460    0.14E-03    0.42E-03    0.16E-06
   0      7    12.313    12.209    0.12E-03    0.40E-03    0.16E-06
   1      7    12.313     4.655    0.33E-03    0.59E-03    0.89E-07
 Optimization of the real space projectors (new method)

 maximal supplied QI-value         = 25.13
 optimisation between [QCUT,QGAM] = [ 12.32, 24.88] = [ 42.47,173.37] Ry 
 Optimized for a Real-space Cutoff    1.06 Angstroem

   l    n(q)    QCUT    max X(q) W(low)/X(q) W(high)/X(q)  e(spline) 
   0      8    12.315   115.676    0.34E-03    0.18E-03    0.23E-06
   0      8    12.315    87.132    0.34E-03    0.18E-03    0.22E-06
   1      7    12.315     4.429    0.45E-03    0.12E-03    0.18E-06
   1      7    12.315     2.733    0.35E-03    0.97E-04    0.15E-06
 Optimization of the real space projectors (new method)

 maximal supplied QI-value         = 24.76
 optimisation between [QCUT,QGAM] = [ 12.38, 25.00] = [ 42.90,175.06] Ry 
 Optimized for a Real-space Cutoff    1.03 Angstroem

   l    n(q)    QCUT    max X(q) W(low)/X(q) W(high)/X(q)  e(spline) 
   0      8    12.378    14.049    0.35E-03    0.80E-04    0.14E-06
   0      8    12.378     8.945    0.50E-03    0.13E-03    0.19E-06
   1      7    12.378     7.086    0.49E-03    0.21E-03    0.21E-06
   1      7    12.378     6.747    0.44E-03    0.20E-03    0.19E-06
 -----------------------------------------------------------------------------
|                                                                             |
|               ----> ADVICE to this user running VASP <----                  |
|                                                                             |
|     You enforced a specific xc type in the INCAR file but a different       |
|     type was found in the POTCAR file.                                      |
|     I HOPE YOU KNOW WHAT YOU ARE DOING!                                     |
|                                                                             |
 -----------------------------------------------------------------------------

  PAW_PBE Mo_sv 02Feb2006               :
 energy of atom  1       EATOM=-1862.2866
 kinetic energy error for atom=    0.0041 (will be added to EATOM!!)
  PAW_PBE S 06Sep2000                   :
 energy of atom  2       EATOM= -276.8230
 kinetic energy error for atom=    0.0009 (will be added to EATOM!!)
  PAW_PBE H 15Jun2001                   :
 energy of atom  3       EATOM=  -12.4884
 kinetic energy error for atom=    0.0004 (will be added to EATOM!!)
  PAW_PBE C 08Apr2002                   :
 energy of atom  4       EATOM= -147.1560
 kinetic energy error for atom=    0.0057 (will be added to EATOM!!)
  PAW_PBE F 08Apr2002                   :
 energy of atom  5       EATOM= -659.6475
 kinetic energy error for atom=    0.0256 (will be added to EATOM!!)
 
 
 POSCAR: Mo S  H  C  F  H
  positions in direct lattice
  velocities in cartesian coordinates
 exchange correlation table for  LEXCH =       43
   RHO(1)=    0.500       N(1)  =     2000
   RHO(2)=  100.500       N(2)  =     4000

 VTST: version 4.1, (05/19/21)

 CHAIN: initializing optimizer
 
 OPT: Using VASP Conjugate-Gradient optimizer
 CHAIN: Read ICHAIN             0
 
 POSCAR: Mo S  H  C  F  H
  positions in direct lattice
  velocities in cartesian coordinates
 


--------------------------------------------------------------------------------------------------------


 ion  position               nearest neighbor table
   1  0.131  0.063  0.500- 144 2.41 159 2.41 147 2.41 138 2.41 162 2.41 141 2.41  49 3.16  72 3.16
                            62 3.17  67 3.17  71 3.17  20 3.17
   2  0.665  0.731  0.671- 106 2.40 108 2.40 196 2.41 114 2.41 193 2.41 117 2.41   8 3.15  64 3.15
                            37 3.16  42 3.17  55 3.18  32 3.19
   3  0.264  0.928  0.669- 155 2.40 215 2.40 140 2.41 143 2.41 218 2.41 149 2.41  25 3.16  74 3.16
                             9 3.16  51 3.16  28 3.17  50 3.17
   4  0.265  0.930  0.330- 217 2.41 142 2.41 146 2.41 148 2.41 139 2.41 214 2.41  29 3.16  10 3.16
                            52 3.16  75 3.16  24 3.16  70 3.17
   5  0.331  0.863  0.500- 213 2.41 210 2.41 197 2.41 136 2.41 207 2.41 216 2.41  12 3.16  53 3.16
                            71 3.16  23 3.17  30 3.17  72 3.17
   6  0.731  0.863  0.500- 116 2.41 110 2.41  89 2.41  76 2.41 119 2.41 100 2.41  67 3.16  46 3.16
                            49 3.16  22 3.16  34 3.16  30 3.17
   7  0.665  0.930  0.330- 105 2.41 201 2.41  94 2.41 107 2.41  97 2.41 198 2.41  29 3.16  16 3.16
                            11 3.16  26 3.16  63 3.16  33 3.17
   8  0.664  0.929  0.670-  96 2.40  93 2.41 108 2.41 106 2.41 199 2.41 134 2.42   2 3.15  27 3.15
                            17 3.16  28 3.17  32 3.17  64 3.17
   9  0.263  0.728  0.670- 209 2.40 215 2.41 157 2.41 137 2.41 218 2.41 212 2.41  32 3.15  51 3.16
                            13 3.16   3 3.16  56 3.16  28 3.17
  10  0.265  0.730  0.330- 217 2.41 145 2.41 208 2.41 211 2.41 214 2.41 158 2.41  52 3.16  57 3.16
                             4 3.16  14 3.16  33 3.16  29 3.17
  11  0.665  0.730  0.330- 115 2.41 118 2.41 195 2.41 105 2.41 107 2.41 192 2.41  33 3.16  38 3.16
                            63 3.16   7 3.16  41 3.17  69 3.17
  12  0.331  0.663  0.500- 204 2.41 179 2.41 194 2.41 207 2.41 191 2.41 210 2.41  15 3.16  59 3.16
                            30 3.16   5 3.16  34 3.17  53 3.17
  13  0.264  0.529  0.671- 209 2.40 206 2.40 173 2.41 212 2.41 176 2.41 181 2.41   9 3.16  60 3.16
                            32 3.17  56 3.17  18 3.17  37 3.18
  14  0.265  0.530  0.330- 211 2.41 175 2.41 172 2.41 180 2.41 205 2.41 208 2.41  33 3.16  38 3.16
                            10 3.16  19 3.16  57 3.16  61 3.17
  15  0.332  0.463  0.500- 150 2.41 153 2.41 204 2.41 186 2.41 188 2.41 179 2.41  12 3.16  34 3.16
                            39 3.16  62 3.16  20 3.17  59 3.17
  16  0.865  0.130  0.330-  94 2.41  90 2.41 102 2.41 124 2.41  97 2.41 132 2.41  26 3.16   7 3.16
                            66 3.16  61 3.16  47 3.16  63 3.17
  17  0.864  0.129  0.670- 104 2.41 122 2.41  91 2.41  96 2.41  88 2.41  93 2.41  64 3.16  48 3.16
                            60 3.16  27 3.16   8 3.16  65 3.17
  18  0.266  0.329  0.671- 152 2.40 206 2.40 167 2.41 170 2.41 181 2.41 178 2.43  50 3.16  13 3.17
                            65 3.18  60 3.18  37 3.18  43 3.22
  19  0.265  0.330  0.330- 169 2.41 205 2.41 154 2.41 151 2.41 180 2.41 166 2.41  70 3.16  61 3.16
                            38 3.16  14 3.16  44 3.17  66 3.17
  20  0.331  0.263  0.500- 153 2.41 183 2.41 150 2.41 144 2.41 202 2.41 147 2.41  62 3.16  39 3.16
                            45 3.16   1 3.17  15 3.17  71 3.17
  21  0.931  0.263  0.500- 168 2.41 123 2.41  80 2.41  81 2.41 131 2.41 165 2.41  49 3.16  62 3.16
                            22 3.16  31 3.17  59 3.17  73 3.17
  22  0.731  0.063  0.500- 110 2.41  80 2.41 101 2.41  76 2.41  95 2.41 131 2.41   6 3.16  49 3.16
                            21 3.16  31 3.17  23 3.17  30 3.17
  23  0.531  0.063  0.500- 219 2.41 136 2.41 101 2.41 197 2.41 222 2.41  95 2.41  30 3.16   5 3.17
                            22 3.17  45 3.17  71 3.17  31 3.17
  24  0.465  0.130  0.330- 203 2.41 184 2.41 146 2.41 148 2.41 200 2.41 220 2.41  44 3.16  35 3.16
                            26 3.16   4 3.16  29 3.16  70 3.17
  25  0.464  0.127  0.669- 182 2.40 223 2.40 221 2.40 149 2.41 155 2.41 185 2.42  43 3.09  28 3.14
                            36 3.15  27 3.15   3 3.16  50 3.18
  26  0.665  0.130  0.330- 203 2.41  97 2.41  84 2.41  94 2.41 220 2.41  78 2.41  35 3.16  47 3.16
                            16 3.16   7 3.16  24 3.16  29 3.17
  27  0.664  0.128  0.669-  96 2.40  93 2.41  79 2.41 221 2.41  85 2.41 223 2.41  36 3.15   8 3.15
                            25 3.15  17 3.16  28 3.17  48 3.17
  28  0.464  0.928  0.669- 199 2.40 221 2.40 223 2.40 215 2.41 218 2.41 134 2.41  32 3.14  25 3.14
                            27 3.17   8 3.17   3 3.17   9 3.17
  29  0.465  0.930  0.330- 201 2.41 217 2.41 203 2.41 198 2.41 214 2.41 220 2.41   7 3.16   4 3.16
                            33 3.16  24 3.16  10 3.17  26 3.17
  30  0.531  0.863  0.500- 197 2.41 194 2.41 110 2.41  76 2.41 136 2.41 191 2.41  34 3.16  12 3.16
                            23 3.16   5 3.17  22 3.17   6 3.17
  31  0.731  0.263  0.500-  81 2.41 101 2.41  77 2.41  95 2.41  87 2.41 123 2.41  73 3.16  45 3.16
                            22 3.17  21 3.17  23 3.17  40 3.17
  32  0.463  0.730  0.670- 193 2.37 134 2.40 212 2.41 199 2.41 196 2.41 209 2.42  28 3.14   9 3.15
                            13 3.17   8 3.17  37 3.17   2 3.19
  33  0.465  0.730  0.330- 195 2.41 211 2.41 201 2.41 198 2.41 208 2.41 192 2.41  11 3.16  14 3.16
                            29 3.16  10 3.16  38 3.17   7 3.17
  34  0.532  0.663  0.500- 188 2.41 191 2.41 186 2.41 194 2.41 116 2.41 119 2.41  46 3.16  15 3.16
                            30 3.16   6 3.16  39 3.16  12 3.17
  35  0.665  0.330  0.330- 127 2.41  84 2.41 130 2.41 200 2.41 184 2.41  78 2.41  44 3.16  26 3.16
                            24 3.16  68 3.16  47 3.17  41 3.17
  36  0.663  0.326  0.669- 182 2.40  85 2.40  79 2.41 126 2.41 185 2.42 129 2.44  43 3.10  27 3.15
                            25 3.15  48 3.17  58 3.18  42 3.21
  37  0.466  0.531  0.674- 193 2.38 181 2.39 196 2.43 190 2.43 206 2.43 225 2.61  42 3.12   2 3.16
                            32 3.17  18 3.18  13 3.18  43 3.30
  38  0.465  0.530  0.330- 205 2.41 189 2.41 195 2.41 192 2.41 180 2.41 135 2.41  11 3.16  41 3.16
                            14 3.16  44 3.16  19 3.16  33 3.17
  39  0.531  0.463  0.500- 133 2.41 188 2.41 128 2.41 186 2.41 183 2.41 202 2.41  40 3.16  46 3.16
                            15 3.16  20 3.16  45 3.16  34 3.16
  40  0.731  0.463  0.500-  87 2.41  77 2.41 109 2.41 113 2.41 133 2.41 128 2.41  39 3.16  46 3.16
                            54 3.16  73 3.16  45 3.17  31 3.17
  41  0.665  0.530  0.330- 189 2.41 115 2.41 127 2.41 135 2.41 130 2.41 118 2.41  69 3.16  38 3.16
                            44 3.16  35 3.17  68 3.17  11 3.17
  42  0.662  0.529  0.674- 226 1.96 117 2.39 129 2.39 190 2.40 114 2.43 126 2.43 225 2.74  37 3.12
                             2 3.17  58 3.19  43 3.20  55 3.20  36 3.21
  43  0.466  0.323  0.666- 226 1.72 185 2.36 190 2.38 182 2.40 178 2.40 152 2.42  25 3.09  36 3.10
                            50 3.13  42 3.20  18 3.22  37 3.30
  44  0.465  0.330  0.330- 154 2.41 189 2.41 184 2.41 200 2.41 151 2.41 135 2.41  35 3.16  24 3.16
                            41 3.16  38 3.16  19 3.17  70 3.17
  45  0.531  0.263  0.500- 183 2.41 219 2.41  87 2.41  77 2.41 222 2.41 202 2.41  31 3.16  39 3.16
                            20 3.16  40 3.17  23 3.17  71 3.17
  46  0.731  0.663  0.500- 125 2.41 128 2.41 116 2.41 119 2.41 133 2.41  86 2.41  54 3.16  34 3.16
                            40 3.16  67 3.16  39 3.16   6 3.16
  47  0.865  0.330  0.330- 120 2.41  84 2.41 124 2.41  78 2.41 102 2.41 111 2.41  57 3.16  26 3.16
                            68 3.16  61 3.16  16 3.16  35 3.17
  48  0.864  0.328  0.670- 121 2.41  79 2.41  85 2.41 122 2.41 112 2.41  88 2.41  17 3.16  56 3.16
                            27 3.17  36 3.17  60 3.17  58 3.17
  49  0.931  0.063  0.500- 159 2.41  80 2.41  89 2.41 131 2.41 100 2.41 162 2.41   1 3.16  21 3.16
                             6 3.16  22 3.16  67 3.17  62 3.17
  50  0.264  0.129  0.669- 164 2.41 161 2.41 155 2.41 149 2.41 178 2.42 152 2.42  43 3.13  65 3.16
                            18 3.16  74 3.16   3 3.17  25 3.18
  51  0.064  0.728  0.670- 157 2.41 140 2.41  92 2.41  82 2.41 137 2.41 143 2.41  55 3.15   9 3.16
                            56 3.16   3 3.16  58 3.17  74 3.17
  52  0.065  0.730  0.330-  83 2.41 145 2.41 139 2.41 103 2.41 142 2.41 158 2.41  10 3.16  75 3.16
                            68 3.16  57 3.16   4 3.16  69 3.17
  53  0.131  0.663  0.500- 174 2.41 207 2.41 210 2.41 177 2.41 171 2.41 156 2.41  54 3.16   5 3.16
                            72 3.16  59 3.16  73 3.16  12 3.17
  54  0.931  0.663  0.500- 177 2.41 113 2.41 109 2.41 125 2.41  86 2.41 156 2.41  67 3.16  46 3.16
                            40 3.16  53 3.16  72 3.16  73 3.17
  55  0.866  0.730  0.670- 117 2.38  82 2.40 114 2.41 224 2.41  99 2.41  92 2.41  51 3.15  74 3.15
                            64 3.17  58 3.17   2 3.18  42 3.20
  56  0.064  0.528  0.670- 157 2.41 173 2.41 112 2.41 137 2.41 176 2.41 121 2.41  48 3.16  51 3.16
                             9 3.16  58 3.17  13 3.17  60 3.17
  57  0.065  0.530  0.330- 120 2.41 175 2.41 158 2.41 145 2.41 172 2.41 111 2.41  47 3.16  10 3.16
                            61 3.16  52 3.16  14 3.16  68 3.16
  58  0.863  0.528  0.671- 112 2.40  92 2.41 126 2.41 121 2.41  82 2.41 129 2.41  56 3.17  51 3.17
                            55 3.17  48 3.17  36 3.18  42 3.19
  59  0.131  0.463  0.500- 168 2.41 171 2.41 165 2.41 204 2.41 174 2.41 179 2.41  12 3.16  62 3.16
                            53 3.16  21 3.17  15 3.17  73 3.17
  60  0.064  0.328  0.670- 176 2.40 170 2.41 173 2.41  88 2.41 122 2.41 167 2.41  65 3.16  17 3.16
                            13 3.16  56 3.17  48 3.17  18 3.18
  61  0.065  0.330  0.330- 169 2.41 124 2.41 175 2.41 102 2.41 166 2.41 172 2.41  19 3.16  47 3.16
                            57 3.16  16 3.16  66 3.16  14 3.17
  62  0.132  0.263  0.500- 168 2.41 159 2.41 165 2.41 162 2.41 153 2.41 150 2.41  20 3.16  59 3.16
                            15 3.16  21 3.16   1 3.17  49 3.17
  63  0.865  0.930  0.330-  90 2.41 187 2.41 105 2.41 132 2.41 107 2.41  98 2.41  11 3.16  69 3.16
                            66 3.16   7 3.16  16 3.17  75 3.17
  64  0.865  0.929  0.670- 104 2.41 106 2.41  99 2.41  91 2.41 108 2.41 224 2.41   2 3.15  17 3.16
                            65 3.16  74 3.16  55 3.17   8 3.17
  65  0.065  0.129  0.670- 161 2.41 170 2.41 104 2.41 164 2.41 167 2.41  91 2.41  50 3.16  74 3.16
                            60 3.16  64 3.16  17 3.17  18 3.18
  66  0.065  0.130  0.330- 169 2.41 163 2.41  90 2.41 166 2.41 160 2.41 132 2.41  70 3.16  63 3.16
                            16 3.16  61 3.16  75 3.16  19 3.17
  67  0.931  0.863  0.500- 138 2.41  89 2.41  86 2.41 100 2.41 141 2.41 125 2.41  54 3.16   6 3.16
                            72 3.16  46 3.16   1 3.17  49 3.17
  68  0.865  0.530  0.330- 120 2.41 127 2.41  83 2.41 103 2.41 130 2.41 111 2.41  47 3.16  35 3.16
                            52 3.16  57 3.16  69 3.16  41 3.17
  69  0.865  0.730  0.330- 187 2.41 115 2.41  83 2.41  98 2.41 103 2.41 118 2.41  41 3.16  63 3.16
                            75 3.16  68 3.16  11 3.17  52 3.17
  70  0.265  0.130  0.330- 148 2.41 154 2.41 160 2.41 151 2.41 146 2.41 163 2.41  19 3.16  66 3.16
                            75 3.17  24 3.17   4 3.17  44 3.17
  71  0.331  0.063  0.500- 219 2.41 147 2.41 213 2.41 216 2.41 144 2.41 222 2.41  72 3.16   5 3.16
                             1 3.17  23 3.17  20 3.17  45 3.17
  72  0.131  0.863  0.500- 156 2.41 213 2.41 138 2.41 216 2.41 177 2.41 141 2.41  67 3.16  71 3.16
                            53 3.16   1 3.16  54 3.16   5 3.17
  73  0.931  0.463  0.500- 174 2.41 171 2.41  81 2.41 113 2.41 123 2.41 109 2.41  31 3.16  40 3.16
                            53 3.16  54 3.17  21 3.17  59 3.17
  74  0.064  0.929  0.670-  99 2.40 140 2.41 164 2.41 161 2.41 224 2.41 143 2.41  55 3.15   3 3.16
                            65 3.16  50 3.16  64 3.16  51 3.17
  75  0.065  0.930  0.330- 163 2.41 187 2.41 139 2.41 160 2.41 142 2.41  98 2.41  52 3.16  69 3.16
                             4 3.16  66 3.16  70 3.17  63 3.17
  76  0.665  0.929  0.457-   6 2.41  30 2.41  22 2.41
  77  0.665  0.330  0.543-  40 2.41  31 2.41  45 2.41
  78  0.732  0.264  0.373-  47 2.41  35 2.41  26 2.41
  79  0.730  0.261  0.713-  36 2.41  27 2.41  48 2.41
  80  0.865  0.129  0.457-  49 2.41  22 2.41  21 2.41
  81  0.865  0.329  0.457-  31 2.41  73 2.41  21 2.41
  82  0.930  0.661  0.627-  55 2.40  51 2.41  58 2.41
  83  0.932  0.664  0.287-  52 2.41  69 2.41  68 2.41
  84  0.732  0.264  0.287-  47 2.41  35 2.41  26 2.41
  85  0.732  0.262  0.626-  36 2.40  48 2.41  27 2.41
  86  0.865  0.729  0.457-  67 2.41  54 2.41  46 2.41
  87  0.665  0.329  0.457-  40 2.41  31 2.41  45 2.41
  88  0.930  0.261  0.713-  17 2.41  60 2.41  48 2.41
  89  0.865  0.929  0.543-  67 2.41   6 2.41  49 2.41
  90  0.932  0.063  0.287-  63 2.41  16 2.41  66 2.41
  91  0.931  0.063  0.627-  17 2.41  64 2.41  65 2.41
  92  0.932  0.663  0.713-  58 2.41  51 2.41  55 2.41
  93  0.731  0.062  0.626-  27 2.41   8 2.41  17 2.41
  94  0.732  0.064  0.287-  16 2.41   7 2.41  26 2.41
  95  0.665  0.129  0.457-  31 2.41  22 2.41  23 2.41
  96  0.730  0.062  0.713-   8 2.40  27 2.40  17 2.41
  97  0.732  0.064  0.373-  26 2.41  16 2.41   7 2.41
  98  0.932  0.864  0.373-  69 2.41  75 2.41  63 2.41
  99  0.932  0.864  0.713-  74 2.40  64 2.41  55 2.41
 100  0.865  0.929  0.457-  67 2.41  49 2.41   6 2.41
 101  0.665  0.129  0.543-  31 2.41  22 2.41  23 2.41
 102  0.932  0.264  0.373-  16 2.41  47 2.41  61 2.41
 103  0.932  0.664  0.373-  52 2.41  69 2.41  68 2.41
 104  0.931  0.062  0.713-  64 2.41  17 2.41  65 2.41
 105  0.732  0.864  0.287-   7 2.41  63 2.41  11 2.41
 106  0.732  0.865  0.713-   2 2.40  64 2.41   8 2.41
 107  0.732  0.864  0.373-  63 2.41   7 2.41  11 2.41
 108  0.731  0.862  0.627-   2 2.40   8 2.41  64 2.41
 109  0.865  0.529  0.543-  40 2.41  54 2.41  73 2.41
 110  0.665  0.929  0.543-   6 2.41  22 2.41  30 2.41
 111  0.932  0.464  0.373-  47 2.41  57 2.41  68 2.41
 112  0.930  0.461  0.713-  58 2.40  56 2.41  48 2.41
 113  0.865  0.529  0.457-  40 2.41  54 2.41  73 2.41
 114  0.729  0.659  0.629-  55 2.41   2 2.41  42 2.43
 115  0.732  0.664  0.287-  11 2.41  41 2.41  69 2.41
 116  0.665  0.729  0.457-   6 2.41  46 2.41  34 2.41
 117  0.736  0.667  0.714-  55 2.38  42 2.39   2 2.41
 118  0.732  0.664  0.373-  11 2.41  69 2.41  41 2.41
 119  0.665  0.730  0.543-  46 2.41   6 2.41  34 2.41
 120  0.932  0.464  0.287-  57 2.41  47 2.41  68 2.41
 121  0.929  0.462  0.627-  48 2.41  58 2.41  56 2.41
 122  0.932  0.262  0.627-  17 2.41  48 2.41  60 2.41
 123  0.865  0.329  0.543-  73 2.41  31 2.41  21 2.41
 124  0.932  0.264  0.287-  16 2.41  47 2.41  61 2.41
 125  0.865  0.729  0.543-  46 2.41  54 2.41  67 2.41
 126  0.728  0.464  0.628-  58 2.41  36 2.41  42 2.43
 127  0.732  0.464  0.287-  35 2.41  41 2.41  68 2.41
 128  0.665  0.529  0.457-  39 2.41  46 2.41  40 2.41
 129  0.730  0.459  0.714-  42 2.39  58 2.41  36 2.44
 130  0.732  0.463  0.373-  35 2.41  41 2.41  68 2.41
 131  0.865  0.129  0.543-  49 2.41  22 2.41  21 2.41
 132  0.932  0.064  0.373-  16 2.41  63 2.41  66 2.41
 133  0.665  0.529  0.543-  39 2.41  40 2.41  46 2.41
 134  0.531  0.862  0.626-  32 2.40  28 2.41   8 2.42
 135  0.532  0.464  0.373-  41 2.41  44 2.41  38 2.41
 136  0.465  0.929  0.457-  23 2.41   5 2.41  30 2.41
 137  0.130  0.661  0.627-   9 2.41  56 2.41  51 2.41
 138  0.064  0.929  0.543-  67 2.41  72 2.41   1 2.41
 139  0.132  0.864  0.373-  52 2.41  75 2.41   4 2.41
 140  0.131  0.862  0.712-   3 2.41  74 2.41  51 2.41
 141  0.065  0.929  0.457-   1 2.41  67 2.41  72 2.41
 142  0.132  0.864  0.287-   4 2.41  52 2.41  75 2.41
 143  0.130  0.861  0.626-   3 2.41  74 2.41  51 2.41
 144  0.264  0.129  0.543-   1 2.41  71 2.41  20 2.41
 145  0.132  0.664  0.287-  10 2.41  57 2.41  52 2.41
 146  0.332  0.064  0.373-  70 2.41   4 2.41  24 2.41
 147  0.265  0.130  0.457-  71 2.41   1 2.41  20 2.41
 148  0.332  0.064  0.287-  70 2.41   4 2.41  24 2.41
 149  0.330  0.061  0.626-   3 2.41  25 2.41  50 2.41
 150  0.265  0.330  0.543-  15 2.41  62 2.41  20 2.41
 151  0.332  0.264  0.373-  70 2.41  44 2.41  19 2.41
 152  0.337  0.264  0.712-  18 2.40  50 2.42  43 2.42
 153  0.265  0.330  0.457-  15 2.41  20 2.41  62 2.41
 154  0.332  0.264  0.287-  44 2.41  70 2.41  19 2.41
 155  0.331  0.062  0.712-   3 2.40  50 2.41  25 2.41
 156  0.065  0.729  0.457-  72 2.41  53 2.41  54 2.41
 157  0.131  0.662  0.713-  51 2.41  56 2.41   9 2.41
 158  0.132  0.664  0.373-  57 2.41  52 2.41  10 2.41
 159  0.065  0.129  0.543-  49 2.41   1 2.41  62 2.41
 160  0.132  0.064  0.373-  70 2.41  75 2.41  66 2.41
 161  0.132  0.063  0.713-  65 2.41  50 2.41  74 2.41
 162  0.065  0.130  0.457-  62 2.41   1 2.41  49 2.41
 163  0.132  0.063  0.287-  75 2.41  70 2.41  66 2.41
 164  0.130  0.062  0.626-  50 2.41  74 2.41  65 2.41
 165  0.065  0.329  0.543-  62 2.41  59 2.41  21 2.41
 166  0.132  0.264  0.373-  66 2.41  61 2.41  19 2.41
 167  0.131  0.261  0.713-  65 2.41  18 2.41  60 2.41
 168  0.065  0.330  0.457-  59 2.41  62 2.41  21 2.41
 169  0.132  0.264  0.287-  19 2.41  61 2.41  66 2.41
 170  0.133  0.263  0.627-  65 2.41  60 2.41  18 2.41
 171  0.065  0.529  0.543-  73 2.41  59 2.41  53 2.41
 172  0.132  0.464  0.373-  14 2.41  57 2.41  61 2.41
 173  0.130  0.462  0.713-  13 2.41  60 2.41  56 2.41
 174  0.065  0.529  0.457-  73 2.41  53 2.41  59 2.41
 175  0.132  0.464  0.287-  14 2.41  57 2.41  61 2.41
 176  0.131  0.462  0.627-  60 2.40  56 2.41  13 2.41
 177  0.065  0.729  0.543-  54 2.41  53 2.41  72 2.41
 178  0.328  0.262  0.626-  43 2.40  50 2.42  18 2.43
 179  0.265  0.529  0.543-  12 2.41  15 2.41  59 2.41
 180  0.332  0.464  0.373-  14 2.41  38 2.41  19 2.41
 181  0.328  0.461  0.715-  37 2.39  13 2.41  18 2.41
 182  0.529  0.259  0.712-  36 2.40  43 2.40  25 2.40
 183  0.465  0.329  0.457-  45 2.41  20 2.41  39 2.41
 184  0.532  0.264  0.287-  24 2.41  35 2.41  44 2.41
 185  0.533  0.258  0.624-  43 2.36  25 2.42  36 2.42
 186  0.465  0.529  0.543-  39 2.41  34 2.41  15 2.41
 187  0.932  0.864  0.287-  69 2.41  63 2.41  75 2.41
 188  0.465  0.529  0.457-  39 2.41  34 2.41  15 2.41
 189  0.532  0.464  0.287-  41 2.41  38 2.41  44 2.41
 190  0.532  0.465  0.629-  43 2.38  42 2.40  37 2.43
 191  0.465  0.729  0.543-  34 2.41  12 2.41  30 2.41
 192  0.532  0.664  0.373-  38 2.41  33 2.41  11 2.41
 193  0.531  0.670  0.713-  32 2.37  37 2.38   2 2.41
 194  0.465  0.729  0.457-  30 2.41  34 2.41  12 2.41
 195  0.532  0.664  0.287-  33 2.41  38 2.41  11 2.41
 196  0.530  0.660  0.628-   2 2.41  32 2.41  37 2.43
 197  0.465  0.929  0.543-  30 2.41   5 2.41  23 2.41
 198  0.532  0.864  0.373-  33 2.41   7 2.41  29 2.41
 199  0.530  0.863  0.713-  28 2.40  32 2.41   8 2.41
 200  0.532  0.264  0.373-  35 2.41  44 2.41  24 2.41
 201  0.532  0.864  0.287-   7 2.41  33 2.41  29 2.41
 202  0.465  0.329  0.543-  20 2.41  45 2.41  39 2.41
 203  0.532  0.064  0.287-  26 2.41  24 2.41  29 2.41
 204  0.265  0.529  0.457-  12 2.41  15 2.41  59 2.41
 205  0.332  0.464  0.287-  38 2.41  19 2.41  14 2.41
 206  0.335  0.464  0.629-  18 2.40  13 2.40  37 2.43
 207  0.264  0.729  0.543-  53 2.41   5 2.41  12 2.41
 208  0.332  0.664  0.373-  10 2.41  14 2.41  33 2.41
 209  0.330  0.663  0.713-  13 2.40   9 2.40  32 2.42
 210  0.265  0.729  0.457-   5 2.41  53 2.41  12 2.41
 211  0.332  0.664  0.287-  14 2.41  33 2.41  10 2.41
 212  0.330  0.660  0.627-  32 2.41   9 2.41  13 2.41
 213  0.265  0.929  0.543-   5 2.41  72 2.41  71 2.41
 214  0.332  0.863  0.373-  10 2.41   4 2.41  29 2.41
 215  0.330  0.862  0.712-   3 2.40   9 2.41  28 2.41
 216  0.265  0.929  0.457-  71 2.41  72 2.41   5 2.41
 217  0.332  0.864  0.287-   4 2.41  10 2.41  29 2.41
 218  0.330  0.861  0.626-   3 2.41   9 2.41  28 2.41
 219  0.464  0.129  0.543-  71 2.41  23 2.41  45 2.41
 220  0.532  0.064  0.373-  26 2.41  24 2.41  29 2.41
 221  0.530  0.061  0.712-  28 2.40  25 2.40  27 2.41
 222  0.465  0.129  0.457-  23 2.41  71 2.41  45 2.41
 223  0.531  0.061  0.626-  28 2.40  25 2.40  27 2.41
 224  0.931  0.862  0.627-  55 2.41  64 2.41  74 2.41
 225  0.538  0.490  0.732- 231 1.81  37 2.61  42 2.74
 226  0.550  0.413  0.695-  43 1.72  42 1.96
 227  0.649  0.707  0.765- 232 1.09
 228  0.679  0.754  0.830- 234 1.09
 229  0.516  0.452  0.863- 233 1.09
 230  0.485  0.402  0.797- 236 1.09
 231  0.562  0.550  0.776- 232 1.41 236 1.41 225 1.81
 232  0.618  0.650  0.786- 227 1.09 234 1.39 231 1.41
 233  0.544  0.507  0.841- 229 1.09 235 1.39 236 1.39
 234  0.636  0.677  0.822- 228 1.09 235 1.39 232 1.39
 235  0.599  0.605  0.849- 237 1.36 234 1.39 233 1.39
 236  0.526  0.480  0.804- 230 1.09 233 1.39 231 1.41
 237  0.617  0.633  0.885- 235 1.36
 
  LATTYP: Found a hexagonal cell.
 ALAT       =    15.8227971106
 C/A-ratio  =     2.3015723924
  
  Lattice vectors:
  
 A1 = (   7.9113990000, -13.7029440000,   0.0000000000)
 A2 = (   7.9113990000,  13.7029440000,   0.0000000000)
 A3 = (   0.0000000000,   0.0000000000,  36.4173130000)


Analysis of symmetry for initial positions (statically):
=====================================================================
 Subroutine PRICEL returns:
 Original cell was already a primitive cell.
 

 Routine SETGRP: Setting up the symmetry group for a 
 hexagonal supercell.


 Subroutine GETGRP returns: Found  1 space group operations
 (whereof  1 operations were pure point group operations)
 out of a pool of 24 trial point group operations.


The static configuration has the point symmetry C_1 .


Analysis of symmetry for dynamics (positions and initial velocities):
=====================================================================
 Subroutine PRICEL returns:
 Original cell was already a primitive cell.
 

 Routine SETGRP: Setting up the symmetry group for a 
 hexagonal supercell.


 Subroutine GETGRP returns: Found  1 space group operations
 (whereof  1 operations were pure point group operations)
 out of a pool of 24 trial point group operations.


The dynamic configuration has the point symmetry C_1 .


Analysis of structural, dynamic, and magnetic symmetry:
=====================================================================
 Subroutine PRICEL returns:
 Original cell was already a primitive cell.
 

 Routine SETGRP: Setting up the symmetry group for a 
 hexagonal supercell.


 Subroutine GETGRP returns: Found  1 space group operations
 (whereof  1 operations were pure point group operations)
 out of a pool of 24 trial point group operations.


The overall configuration has the point symmetry C_1 .


 Subroutine INISYM returns: Found  1 space group operations
 (whereof  1 operations are pure point group operations),
 and found     1 'primitive' translations


----------------------------------------------------------------------------------------

                                     Primitive cell                                     

  volume of cell :    7895.9623

  direct lattice vectors                    reciprocal lattice vectors
     7.911399000-13.702944000  0.000000000     0.063199947 -0.036488509  0.000000000
     7.911399000 13.702944000  0.000000000     0.063199947  0.036488509 -0.000000000
     0.000000000  0.000000000 36.417313000    -0.000000000  0.000000000  0.027459467

  length of vectors
    15.822797111 15.822797111 36.417313000     0.072977015  0.072977015  0.027459467

  position of ions in fractional coordinates (direct lattice)
     0.131290564  0.062723219  0.499801825
     0.665003201  0.730525290  0.670801933
     0.263678614  0.928283254  0.669065710
     0.265391769  0.930343005  0.329911246
     0.331282081  0.862591126  0.499839835
     0.731492971  0.862726675  0.499846329
     0.665337923  0.930420376  0.329940000
     0.664101095  0.928851216  0.669605388
     0.263402426  0.728311686  0.669540623
     0.265301220  0.730307968  0.329889237
     0.665234291  0.730399026  0.329935565
     0.331359372  0.662692172  0.499950230
     0.263985385  0.528882992  0.670758101
     0.265410198  0.530370207  0.329891931
     0.331529361  0.462867502  0.499918237
     0.865336868  0.130352484  0.329895861
     0.864294695  0.128649879  0.669817779
     0.265751630  0.329277096  0.670835649
     0.265374081  0.330347774  0.329939600
     0.331399968  0.262739066  0.499968055
     0.931424473  0.262678574  0.499952822
     0.731410866  0.062667134  0.499862172
     0.531335686  0.062593497  0.499798067
     0.465383602  0.130396768  0.329902430
     0.464153954  0.126915072  0.668611921
     0.665428000  0.130461823  0.329903178
     0.664000971  0.128042086  0.669272084
     0.463750357  0.928222392  0.669048208
     0.465368714  0.930365709  0.329986531
     0.531332519  0.862589312  0.499868633
     0.731379163  0.262687012  0.499902695
     0.463110033  0.729770619  0.669564177
     0.465317311  0.730345359  0.329938550
     0.531503575  0.662744513  0.499923150
     0.665381092  0.330375686  0.329869408
     0.662937000  0.326352076  0.669323426
     0.466011275  0.530985957  0.674161007
     0.465377678  0.530346728  0.329952483
     0.531437872  0.462701482  0.499934963
     0.731346541  0.462764505  0.499898954
     0.665371182  0.530410658  0.329952742
     0.662105549  0.528746645  0.673619282
     0.465599935  0.322690190  0.666458907
     0.465459371  0.330390898  0.329918917
     0.531373389  0.262664834  0.499949460
     0.731381556  0.662699471  0.499899958
     0.865419288  0.330395480  0.329931349
     0.863948281  0.328178776  0.670008230
     0.931445139  0.062731967  0.499808894
     0.264265843  0.128936046  0.669099103
     0.063769042  0.728325120  0.669699101
     0.065399782  0.730323311  0.329877888
     0.131221884  0.662699287  0.499892840
     0.931255619  0.662697652  0.499875698
     0.865566730  0.729698975  0.670015693
     0.063513547  0.528306801  0.670064049
     0.065376086  0.530313112  0.329948026
     0.863364663  0.528318510  0.670650120
     0.131418518  0.462789830  0.499962222
     0.064374160  0.328494888  0.670403825
     0.065370666  0.330313225  0.329940939
     0.131523356  0.262873309  0.499920737
     0.865272556  0.930291854  0.329958452
     0.864671276  0.929302797  0.669850419
     0.064694996  0.128893704  0.669920728
     0.065286556  0.130259525  0.329924365
     0.931319327  0.862603923  0.499773677
     0.865382986  0.530351116  0.329960127
     0.865296152  0.730329730  0.329966630
     0.265322567  0.130374923  0.329881795
     0.331277146  0.062595580  0.499802440
     0.131274214  0.862715587  0.499781637
     0.931244021  0.462654623  0.499926667
     0.064488913  0.929133429  0.669527512
     0.065337590  0.930261036  0.329916723
     0.664698961  0.929261029  0.456780378
     0.664879839  0.329510103  0.542987378
     0.732097703  0.263858045  0.373001447
     0.729705695  0.260562219  0.712643624
     0.864739408  0.129448903  0.456780690
     0.864689328  0.329322174  0.456843353
     0.929504238  0.660532719  0.626991771
     0.932020801  0.663738225  0.286891153
     0.732195388  0.263806726  0.286850321
     0.731835778  0.262136219  0.626401388
     0.864586725  0.729234111  0.456724706
     0.664718100  0.329472607  0.456842267
     0.930310028  0.261305888  0.713181908
     0.864904702  0.929343448  0.542874009
     0.931856177  0.063497981  0.286873433
     0.931399822  0.062563457  0.626714499
     0.931657293  0.662511425  0.713256051
     0.731443562  0.061852377  0.626421921
     0.732098720  0.063729612  0.286852744
     0.664843624  0.129457515  0.456750994
     0.730354887  0.061999879  0.712612584
     0.732089345  0.063877033  0.372995136
     0.932034524  0.863644118  0.373079985
     0.932483317  0.863676201  0.712903004
     0.864782462  0.929427247  0.456696599
     0.664603575  0.129233676  0.542929112
     0.931902334  0.263545634  0.373001126
     0.932220136  0.663797628  0.373022825
     0.931246260  0.062437522  0.712897516
     0.731985712  0.863798605  0.286874952
     0.732156229  0.864798936  0.713271102
     0.731938075  0.863722836  0.373055295
     0.730933021  0.861586170  0.626888045
     0.864596754  0.529416983  0.542992333
     0.664755810  0.929295126  0.542920469
     0.932066726  0.463651652  0.373089955
     0.930395071  0.461217260  0.713236155
     0.864637368  0.529344309  0.456822009
     0.728936751  0.659408015  0.628555782
     0.731948510  0.663748770  0.286908454
     0.664805407  0.729425249  0.456811274
     0.736035734  0.667181294  0.713540811
     0.731885855  0.663817801  0.373048632
     0.664906425  0.729505968  0.543007342
     0.932141565  0.463707025  0.286919733
     0.929469625  0.461840957  0.627174840
     0.931675082  0.262403138  0.626993306
     0.864686086  0.329361911  0.543033051
     0.932044658  0.263726853  0.286868599
     0.864638711  0.729356062  0.542995834
     0.728235107  0.464420950  0.628426453
     0.732041429  0.463763657  0.286887523
     0.664633549  0.529388736  0.456822272
     0.730147613  0.459208061  0.714042033
     0.731863982  0.463488415  0.373014385
     0.864733232  0.129127602  0.542999626
     0.931860907  0.063678414  0.373029449
     0.664730712  0.529400333  0.543001694
     0.530946890  0.861512782  0.626116899
     0.532079378  0.463653385  0.373063450
     0.464607821  0.929183015  0.456735060
     0.129692490  0.660854284  0.626583398
     0.064493793  0.929287392  0.542845314
     0.132013682  0.863566030  0.372994607
     0.131245035  0.862349083  0.712412017
     0.064663846  0.929465640  0.456653303
     0.132168061  0.863717146  0.286816659
     0.129842712  0.861289312  0.626302072
     0.264453984  0.129045113  0.542934926
     0.131983665  0.663522679  0.286831134
     0.331985608  0.063757344  0.372972514
     0.264752937  0.129507250  0.456782184
     0.331910156  0.063771781  0.286854849
     0.329898241  0.061327577  0.625861616
     0.264865513  0.329669074  0.543029403
     0.332074241  0.263604965  0.372993775
     0.336555079  0.263630041  0.711930110
     0.264949002  0.329558009  0.456854009
     0.332207562  0.263798172  0.286870806
     0.330945739  0.061692346  0.711868377
     0.064587705  0.729325015  0.456761224
     0.130670374  0.662224079  0.712810516
     0.131979104  0.663629883  0.373012519
     0.064673983  0.129325093  0.542916912
     0.132131538  0.063638459  0.372998408
     0.132169353  0.062526592  0.712647060
     0.064891607  0.129743602  0.456733574
     0.131887092  0.063495644  0.286849833
     0.130332136  0.062251782  0.626381615
     0.064889644  0.329458063  0.543062613
     0.131970258  0.263560568  0.373061151
     0.131208682  0.261302765  0.713404306
     0.064820750  0.329536357  0.456869536
     0.132058127  0.263683562  0.286896200
     0.132689501  0.263397260  0.627439213
     0.064561850  0.529385765  0.542997364
     0.132235360  0.463787435  0.373016576
     0.129778654  0.461902699  0.713425672
     0.064545765  0.529320297  0.456851954
     0.132024424  0.463667596  0.286879385
     0.131062095  0.461560546  0.627344276
     0.064526237  0.729476413  0.542925551
     0.328319371  0.261955070  0.625576817
     0.264835764  0.529452707  0.543078771
     0.331998125  0.463781479  0.373029505
     0.328428238  0.461419268  0.714634402
     0.529249544  0.259288540  0.711789420
     0.464708847  0.329312435  0.456864373
     0.532016839  0.263665264  0.286812092
     0.532923903  0.258496068  0.624448577
     0.464879487  0.529443104  0.543004751
     0.931894936  0.863575344  0.286900138
     0.464963773  0.529457027  0.456839988
     0.532119056  0.463782207  0.286888730
     0.531711358  0.465449122  0.629455043
     0.464813124  0.729303154  0.543025833
     0.531895073  0.663613933  0.373063314
     0.530592739  0.669762262  0.713323482
     0.464668235  0.729200944  0.456823468
     0.531865591  0.663633919  0.286873117
     0.530358323  0.659556934  0.628385476
     0.464653555  0.929293169  0.542916231
     0.532036867  0.863574293  0.373069080
     0.530198020  0.863206061  0.712507289
     0.532192945  0.263770302  0.372995328
     0.531993810  0.863712526  0.286895607
     0.464751041  0.329380351  0.543091987
     0.532087616  0.063714743  0.286883194
     0.264740239  0.529464874  0.456854404
     0.332163225  0.463667851  0.286870146
     0.335287812  0.464303931  0.629062442
     0.264489964  0.729342630  0.542989082
     0.331890785  0.663667734  0.372988698
     0.330190025  0.663351928  0.713118988
     0.264544466  0.729184584  0.456802705
     0.332067283  0.663678061  0.286847827
     0.329525109  0.660277117  0.626720723
     0.264557668  0.929233064  0.542866266
     0.331831962  0.863448510  0.373063295
     0.330465905  0.862341472  0.712208650
     0.264659780  0.929265047  0.456707058
     0.332103184  0.863717571  0.286887796
     0.329904193  0.861008142  0.626103605
     0.464496070  0.128998828  0.542893667
     0.532202335  0.063942049  0.373055023
     0.530168842  0.061014709  0.712113551
     0.464754372  0.129491507  0.456754520
     0.531140450  0.060553695  0.625764821
     0.930567582  0.862038645  0.626619064
     0.537724497  0.490227408  0.731503576
     0.549668483  0.413458976  0.694549213
     0.648752321  0.707106051  0.765081145
     0.679227054  0.754007041  0.830139611
     0.516465351  0.452394586  0.862771332
     0.484577194  0.402290842  0.796689245
     0.562366345  0.550298090  0.775840052
     0.617993830  0.649533330  0.785604189
     0.543890197  0.506590882  0.840845453
     0.636161258  0.677273546  0.822383033
     0.598812917  0.605358987  0.849275212
     0.526235790  0.479620815  0.804010258
     0.617148443  0.632607697  0.885153155

  ion indices of the primitive-cell ions
   primitive index   ion index
                 1           1
                 2           2
                 3           3
                 4           4
                 5           5
                 6           6
                 7           7
                 8           8
                 9           9
                10          10
                11          11
                12          12
                13          13
                14          14
                15          15
                16          16
                17          17
                18          18
                19          19
                20          20
                21          21
                22          22
                23          23
                24          24
                25          25
                26          26
                27          27
                28          28
                29          29
                30          30
                31          31
                32          32
                33          33
                34          34
                35          35
                36          36
                37          37
                38          38
                39          39
                40          40
                41          41
                42          42
                43          43
                44          44
                45          45
                46          46
                47          47
                48          48
                49          49
                50          50
                51          51
                52          52
                53          53
                54          54
                55          55
                56          56
                57          57
                58          58
                59          59
                60          60
                61          61
                62          62
                63          63
                64          64
                65          65
                66          66
                67          67
                68          68
                69          69
                70          70
                71          71
                72          72
                73          73
                74          74
                75          75
                76          76
                77          77
                78          78
                79          79
                80          80
                81          81
                82          82
                83          83
                84          84
                85          85
                86          86
                87          87
                88          88
                89          89
                90          90
                91          91
                92          92
                93          93
                94          94
                95          95
                96          96
                97          97
                98          98
                99          99
               100         100
               101         101
               102         102
               103         103
               104         104
               105         105
               106         106
               107         107
               108         108
               109         109
               110         110
               111         111
               112         112
               113         113
               114         114
               115         115
               116         116
               117         117
               118         118
               119         119
               120         120
               121         121
               122         122
               123         123
               124         124
               125         125
               126         126
               127         127
               128         128
               129         129
               130         130
               131         131
               132         132
               133         133
               134         134
               135         135
               136         136
               137         137
               138         138
               139         139
               140         140
               141         141
               142         142
               143         143
               144         144
               145         145
               146         146
               147         147
               148         148
               149         149
               150         150
               151         151
               152         152
               153         153
               154         154
               155         155
               156         156
               157         157
               158         158
               159         159
               160         160
               161         161
               162         162
               163         163
               164         164
               165         165
               166         166
               167         167
               168         168
               169         169
               170         170
               171         171
               172         172
               173         173
               174         174
               175         175
               176         176
               177         177
               178         178
               179         179
               180         180
               181         181
               182         182
               183         183
               184         184
               185         185
               186         186
               187         187
               188         188
               189         189
               190         190
               191         191
               192         192
               193         193
               194         194
               195         195
               196         196
               197         197
               198         198
               199         199
               200         200
               201         201
               202         202
               203         203
               204         204
               205         205
               206         206
               207         207
               208         208
               209         209
               210         210
               211         211
               212         212
               213         213
               214         214
               215         215
               216         216
               217         217
               218         218
               219         219
               220         220
               221         221
               222         222
               223         223
               224         224
               225         225
               226         226
               227         227
               228         228
               229         229
               230         230
               231         231
               232         232
               233         233
               234         234
               235         235
               236         236
               237         237

----------------------------------------------------------------------------------------

 
 
 KPOINTS: K-Points                                

Automatic generation of k-mesh.
 Grid dimensions read from file:
 generate k-points for:    3    3    1

 Generating k-lattice:

  Cartesian coordinates                     Fractional coordinates (reciprocal lattice)
     0.021066649 -0.012162836  0.000000000     0.333333333 -0.000000000  0.000000000
     0.021066649  0.012162836 -0.000000000    -0.000000000  0.333333333  0.000000000
    -0.000000000  0.000000000  0.027459467     0.000000000  0.000000000  1.000000000

  Length of vectors
     0.024325672  0.024325672  0.027459467

  Shift w.r.t. Gamma in fractional coordinates (k-lattice)
     0.000000000  0.000000000  0.000000000

 
 Subroutine IBZKPT returns following result:
 ===========================================
 
 Found      5 irreducible k-points:
 
 Following reciprocal coordinates:
            Coordinates               Weight
  0.000000  0.000000  0.000000      1.000000
  0.333333  0.000000  0.000000      2.000000
  0.000000  0.333333  0.000000      2.000000
 -0.333333  0.333333  0.000000      2.000000
  0.333333  0.333333  0.000000      2.000000
 
 Following cartesian coordinates:
            Coordinates               Weight
  0.000000  0.000000  0.000000      1.000000
  0.021067 -0.012163  0.000000      2.000000
  0.021067  0.012163  0.000000      2.000000
  0.000000  0.024326  0.000000      2.000000
  0.042133  0.000000  0.000000      2.000000
 


--------------------------------------------------------------------------------------------------------




 Dimension of arrays:
   k-points           NKPTS =      5   k-points in BZ     NKDIM =      5   number of bands    NBANDS=   1332
   number of dos      NEDOS =    301   number of ions     NIONS =    237
   non local maximal  LDIM  =      6   non local SUM 2l+1 LMDIM =     18
   total plane-waves  NPLWV = ******
   max r-space proj   IRMAX =   3534   max aug-charges    IRDMAX=  11632
   dimension x,y,z NGX =    96 NGY =   96 NGZ =  224
   dimension x,y,z NGXF=   192 NGYF=  192 NGZF=  448
   support grid    NGXF=   192 NGYF=  192 NGZF=  448
   ions per type =              75 150   5   6   1
   NGX,Y,Z   is equivalent  to a cutoff of  10.09, 10.09, 10.23 a.u.
   NGXF,Y,Z  is equivalent  to a cutoff of  20.17, 20.17, 20.45 a.u.

 SYSTEM =  unknown system                          
 POSCAR =  Mo S  H  C  F  H                        

 Startparameter for this run:
   NWRITE =      2    write-flag & timer
   PREC   = normal    normal or accurate (medium, high low for compatibility)
   ISTART =      0    job   : 0-new  1-cont  2-samecut
   ICHARG =      2    charge: 1-file 2-atom 10-const
   ISPIN  =      2    spin polarized calculation?
   LNONCOLLINEAR =      F non collinear calculations
   LSORBIT =      F    spin-orbit coupling
   INIWAV =      1    electr: 0-lowe 1-rand  2-diag
   LASPH  =      T    aspherical Exc in radial PAW
 Electronic Relaxation 1
   ENCUT  =  600.0 eV  44.10 Ry    6.64 a.u.  31.60 31.60 72.73*2*pi/ulx,y,z
   ENINI  =  600.0     initial cutoff
   ENAUG  =  644.9 eV  augmentation charge cutoff
   NELM   =   2000;   NELMIN=  2; NELMDL=  0     # of ELM steps 
   EDIFF  = 0.1E-05   stopping-criterion for ELM
   LREAL  =      T    real-space projection
   NLSPLINE    = F    spline interpolate recip. space projectors
   LCOMPAT=      F    compatible to vasp.4.4
   GGA_COMPAT  = T    GGA compatible to vasp.4.4-vasp.4.6
   LMAXPAW     = -100 max onsite density
   LMAXMIX     =    2 max onsite mixed and CHGCAR
   VOSKOWN=      0    Vosko Wilk Nusair interpolation
   ROPT   =   -0.00050  -0.00050  -0.00050  -0.00050
   ROPT   =   -0.00050
 Ionic relaxation
   EDIFFG = -.3E-01   stopping-criterion for IOM
   NSW    =   5000    number of steps for IOM
   NBLOCK =      1;   KBLOCK =   5000    inner block; outer block 
   IBRION =      2    ionic relax: 0-MD 1-quasi-New 2-CG
   NFREE  =      1    steps in history (QN), initial steepest desc. (CG)
   ISIF   =      2    stress and relaxation
[...]
      7.86445     -6.42246     18.20511         0.002373      0.001348      0.004563
      9.43735      3.65404     24.38373        -0.000167     -0.000633     -0.002453
      9.45936      3.63166     12.01548        -0.001740     -0.000884     -0.002252
      9.44817      1.79839     18.20586         0.001497     -0.005263      0.001268
      7.87783     -4.59056     12.01296        -0.001431     -0.003250      0.002698
      7.82666     -4.61220     24.37496         0.000572      0.000823      0.000200
      7.88764      0.89034     24.55113        -0.002630     -0.001463     -0.000393
      7.87757      0.89027     12.01598        -0.000525     -0.000777     -0.002060
      7.86503     -0.94189     18.20629        -0.004110      0.001386     -0.000275
      9.44709     -3.68036     18.20498         0.002117      0.001342     -0.002448
      9.46031     -1.84936     12.01599        -0.002319      0.000679      0.002068
      9.42131     -1.82741     24.53140        -0.001187      0.000843     -0.003862
      6.23648     -1.95828     24.27064        -0.001547     -0.003119      0.002797
      6.29629     -1.85084     12.01476         0.000791     -0.002097     -0.000153
      6.28195     -3.68210     18.20682         0.002113     -0.001378      0.000347
     11.02913     -0.94115     18.20501         0.001807      0.001596     -0.002575
      9.46057     -7.33140     12.01521        -0.000145      0.001490      0.000098
      9.43139     -7.34162     24.39990         0.008557      0.004948      0.000700
      7.86533    -11.90393     18.20170         0.004053      0.001457      0.002631
      3.11078     -1.85442     24.36679        -0.004312      0.001258     -0.001824
      6.26657      9.10637     24.38864        -0.004835      0.004427     -0.000859
      6.29528      9.11141     12.01327         0.002922     -0.000028      0.002466
      6.28103      7.28281     18.20475        -0.000058     -0.001078      0.002603
     12.61040     -3.68003     18.20413        -0.001171      0.001317     -0.003812
     12.62078     -1.86179     24.40017         0.001388     -0.000543     -0.001041
      4.68213      6.36904     24.40193         0.003507      0.003465     -0.001120
      4.71273      6.37101     12.01582         0.003087     -0.002013     -0.002820
     11.01016     -4.59112     24.42328        -0.000479      0.001483      0.003319
      4.70102      4.54076     18.20728         0.000741     -0.001320      0.001720
      3.10814      3.61923     24.41431         0.001649      0.002162      0.004501
      3.13041      3.63049     12.01556         0.003494      0.000378     -0.000100
      3.12023      1.79988     18.20577         0.002183      0.000246     -0.000841
     14.20543      0.89096     12.01620        -0.002066     -0.003646      0.000022
     14.19284      0.88564     24.39415         0.002410      0.004088      0.004451
      1.53156      0.87971     24.39671        -0.001309      0.003241     -0.001049
      1.54704      0.89032     12.01496         0.000175     -0.000849     -0.001922
     14.19244     -0.94160     18.20041         0.000228      0.002554      0.001576
     11.04221     -4.59092     12.01626         0.000666     -0.001005     -0.000353
     12.62363     -1.84944     12.01650         0.004577      0.000265     -0.002130
      3.13052     -1.84918     12.01341        -0.000771     -0.002143     -0.000328
      3.11608     -3.68173     18.20146        -0.001529     -0.000683      0.000152
      7.86385     10.02290     18.20070        -0.000214     -0.000115     -0.000812
     11.02769     -6.42105     18.20599         0.003561     -0.000118      0.000740
      7.86094     11.84818     24.38239         0.000170     -0.003887      0.000577
      7.87658     11.85200     12.01468        -0.005052     -0.003118      0.001377
     12.61045      3.62528     16.63471         0.006797      0.003377     -0.006589
      7.86702     -4.59555     19.77414        -0.001850     -0.002607     -0.003690
      7.87940     -6.41626     13.58371        -0.004663     -0.004915      0.000496
      7.83440     -6.42865     25.95257         0.009267      0.004117     -0.000863
      7.86542    -10.07564     16.63473         0.007962     -0.001211     -0.000237
      9.44630     -7.33611     16.63701        -0.003425     -0.002228     -0.000402
     12.57942     -3.68570     22.83336         0.010247      0.002321      0.000862
     12.62469     -3.67626     10.44780        -0.002199     -0.003191      0.003663
      7.87977     -6.41830     10.44632         0.001256     -0.004877     -0.008228
      7.86371     -6.43627     22.81186         0.005339     -0.006390      0.002341
     12.60935     -1.85473     16.63269        -0.003362     -0.001875     -0.003492
      7.86544     -4.59385     16.63697         0.002061     -0.002828      0.000446
      9.42735     -9.16733     25.97217         0.001183      0.005339     -0.003023
     14.19501      0.88300     19.77001         0.006008     -0.002189     -0.000322
      7.87464    -11.89906     10.44716        -0.002123     -0.004632      0.001310
      7.86364    -11.90562     22.82326         0.000379     -0.003501      0.001248
     12.61210     -3.68809     25.97487        -0.003644      0.000023      0.003458
      6.27608     -9.17537     22.81260        -0.002934     -0.005291     -0.000913
      6.29612     -9.15862     10.44641         0.001990      0.004075      0.000997
      6.28403     -7.33637     16.63364         0.002759     -0.003753      0.001349
      6.26863     -9.15843     25.95144         0.005221     -0.003778      0.005535
      6.29721     -9.15648     13.58348        -0.003696     -0.002685     -0.002253
     14.20633     -0.93715     13.58657         0.002338      0.003143     -0.001833
     14.21013     -0.94286     25.96201        -0.001620      0.000097      0.001877
     14.19471      0.88582     16.63166         0.002397      0.002786     -0.001168
      6.28036     -7.33614     19.77202         0.001247      0.002076     -0.003811
      9.45767     -9.15845     13.58370        -0.000208     -0.002281      0.001670
     12.62673     -3.67818     13.58449        -0.000233      0.003200     -0.007063
      7.86143    -11.90524     25.96181         0.004586      0.007143      0.006415
     12.62489      1.80622     10.44721        -0.000104     -0.005016     -0.000493
     12.63415      1.81760     25.97542        -0.001647     -0.000412      0.000438
     12.62391      1.80584     13.58567        -0.000245      0.001181      0.001179
     12.59905      1.79033     22.82958        -0.008642      0.004420      0.006608
     11.02860     -4.59295     19.77432        -0.002140      0.004084     -0.001921
     12.61117      3.62497     19.77170        -0.003720      0.001151     -0.000027
     11.04208     -6.41867     13.58693         0.001257      0.005311     -0.001242
     11.00960     -6.42912     25.97414         0.004770      0.000447      0.005061
     11.02835     -4.59450     16.63623         0.004033     -0.002455     -0.001766
     10.98375     -0.95275     22.89031         0.002418     -0.000078      0.004108
     11.04192     -0.93454     10.44843         0.001595      0.006512     -0.002093
     11.03032      0.88548     16.63584         0.001702     -0.001981     -0.005346
     11.10141     -0.94351     25.98524         0.003027      0.002100      0.003051
     11.04197     -0.93273     13.58543        -0.001038     -0.002513      0.000826
     11.03175      0.88520     19.77487         0.001721     -0.006197      0.000974
     11.04312     -6.41893     10.44885        -0.004898      0.000229     -0.000249
     11.00721     -6.40789     22.84002         0.002438     -0.003786      0.001604
      9.44683     -9.17100     22.83341        -0.001856      0.004799      0.007684
      9.44659     -7.33552     19.77580         0.001567     -0.003644     -0.000535
      9.46023     -9.15792     10.44698        -0.005580     -0.006072      0.003469
     12.61073     -1.85377     19.77445         0.000726     -0.004801     -0.002337
      9.43558     -3.61503     22.88560        -0.002901     -0.002729     -0.001538
      9.46049     -3.67620     10.44767         0.001437      0.000738      0.002425
      9.44639     -1.85325     16.63624         0.003107     -0.001929     -0.005414
      9.40947     -3.71267     26.00349        -0.005781      0.001433     -0.000859
      9.45691     -3.67754     13.58418         0.003532      0.000607     -0.002224
      7.86283    -10.07996     19.77459         0.004180     -0.002848     -0.001088
      7.87611    -11.89666     13.58473         0.001510     -0.000438     -0.004220
      9.44725     -1.85442     19.77466         0.001839      0.007626      0.001953
     11.01630      4.52973     22.80150         0.008858     -0.004405      0.009131
      7.87764     -0.93764     13.58597        -0.000059      0.002312      0.007227
     11.02684      6.36605     16.63306         0.004904     -0.000458     -0.002002
      6.25433      7.27848     22.81848        -0.008115      0.007252     -0.000597
      7.86220     11.85022     19.76897         0.004286      0.002655     -0.000055
      7.87643     10.02442     13.58346         0.005373     -0.007019     -0.002369
      7.86072     10.01828     25.94413         0.002701      0.003471      0.002919
      7.86496     11.85033     16.63009         0.009587     -0.002677      0.001952
      7.87885     10.02438     10.44509        -0.001511      0.003039      0.003059
      7.84124     10.02297     22.80824        -0.006832      0.000165     -0.006866
      3.11313     -1.85550     19.77223        -0.000762     -0.002704      0.001085
      6.29357      7.28365     10.44562        -0.001327      0.002624     -0.000005
      3.13088     -3.67552     13.58266        -0.000244      0.002422      0.000986
      3.11915     -1.85326     16.63478         0.000290      0.009340     -0.008338
      3.13040     -3.67429     10.44648         0.003338     -0.003113     -0.001210
      3.09514     -3.68021     22.79220         0.000585     -0.005765     -0.000958
      4.70360      0.88800     19.77567         0.000738      0.003070      0.004138
      4.71266     -0.93823     13.58343        -0.000885     -0.005428      0.002798
      4.74830     -0.99929     25.92658        -0.001324     -0.001500     -0.005345
      4.70338      0.88533     16.63740        -0.001533      0.002899      0.000167
      4.71524     -0.93741     10.44706         0.003635     -0.000161     -0.004844
      3.10632     -3.68956     25.92433        -0.008608      0.006094     -0.004201
      6.28096      9.10886     16.63402         0.004582      0.002254     -0.000023
      6.27290      7.28385     25.95864        -0.004537      0.007183      0.002641
      6.29438      7.28518     13.58411        -0.000982     -0.001728     -0.003735
      1.53480      0.88591     19.77158         0.000873      0.000963      0.006185
      1.54881     -0.93856     13.58360        -0.003655     -0.002361     -0.003813
      1.54032     -0.95431     25.95269         0.001357     -0.000775     -0.000811
      1.53984      0.88866     16.63301        -0.003171      0.002783     -0.001938
      1.54575     -0.93716     10.44630         0.003933      0.001950      0.002817
      1.52361     -0.93290     22.81114         0.002828     -0.000716     -0.001455
      3.11984      3.62537     19.77688        -0.002402      0.001028     -0.002100
      3.12920      1.80317     13.58588         0.003184      0.005893      0.001452
      3.10531      1.78267     25.98027         0.004526     -0.003094      0.004233
      3.11992      3.62738     16.63796        -0.005615      0.001088      0.001302
      3.13087      1.80366     10.44799         0.000049      0.000006      0.002574
      3.13360      1.79108     22.84965        -0.000720     -0.000361     -0.003053
      4.69896      6.36946     19.77450        -0.001715      0.006056      0.005087
      4.71537      4.54324     13.58426        -0.002608     -0.006702      0.002944
      4.68103      4.55108     25.98105         0.003085      0.008841      0.002861
      4.69831      6.36878     16.63732        -0.003216     -0.000255     -0.001541
      4.71276      4.54449     10.44738         0.001498      0.000062      0.001289
      4.68847      4.52880     22.84619         0.001486      0.007790      0.002880
      6.28167      9.11178     19.77189        -0.000527     -0.004491     -0.001596
      4.66990     -0.90939     22.78183         0.001948     -0.000278     -0.001437
      6.28393      3.62603     19.77747        -0.000190      0.001938      0.003210
      6.29573      1.80582     13.58473         0.001644      0.001418     -0.003301
      6.24880      1.82237     26.02506         0.002140      0.000967     -0.002860
      6.23844     -3.69926     25.92146        -0.001955     -0.006099      0.010717
      6.28182     -1.85533     16.63777         0.000555     -0.001763      0.002950
      6.29496     -3.67721     10.44493         0.004550     -0.000219      0.001467
      6.26124     -3.76047     22.74074         0.007375      0.001600     -0.001493
      7.86648      0.88471     19.77477        -0.000599     -0.004473      0.000475
     14.20468     -0.93618     10.44813        -0.002829     -0.001103      0.001752
      7.86726      0.88375     16.63688        -0.000322      0.000549     -0.001702
      7.87897     -0.93642     10.44772         0.001685      0.001160     -0.000671
      7.88893     -0.90799     22.92306         0.006700      0.005728     -0.009035
      9.44713      3.62429     19.77554        -0.002893      0.004785      0.004107
      9.45815      1.80494     13.58596        -0.003341     -0.001915      0.000548
      9.49649      1.90703     25.97732        -0.011087     -0.001438      0.001453
      9.44518      3.62488     16.63628         0.004136      0.002106      0.000973
      9.45807      1.80561     10.44715        -0.001500      0.003442      0.001579
      9.41389      1.77040     22.88411         0.001833      0.000602     -0.001517
     11.02807      6.36693     19.77155        -0.001721      0.002604     -0.001254
     11.04124      4.54304     13.58617        -0.003274     -0.000450      0.001750
     11.02378      4.56319     25.94760         0.002353     -0.013641      0.004735
      6.29718     -3.67818     13.58349        -0.004086     -0.001562      0.003036
     11.04199      4.54552     10.44797        -0.000391     -0.003002      0.000504
      6.28269     -1.85498     19.77795        -0.000921     -0.004846      0.001218
      4.71363     -6.41809     10.44752         0.001831     -0.000770      0.005220
      6.28327      3.62751     16.63741         0.003681      0.001001     -0.000686
      6.29614      1.80200     10.44704         0.004154      0.008849     -0.000829
      6.32589      1.76790     22.90876         0.003716      0.002214      0.003190
      7.86261      6.36985     19.77420        -0.001839     -0.004156      0.002027
      7.87626      4.54632     13.58325         0.001490      0.001617      0.000075
      7.86031      4.56530     25.96988         0.002683     -0.000569      0.004536
      7.86179      6.36694     16.63553         0.005358     -0.001771      0.000070
      7.87774      4.54404     10.44623         0.000046     -0.002084     -0.001230
      7.83072      4.53228     22.82348         0.001213      0.002466     -0.000300
      9.44455      9.10801     19.76973        -0.004536      0.001617      0.000343
      9.45634      7.28471     13.58596         0.001756     -0.001408     -0.000294
      9.43678      7.28826     25.93673         0.006034     -0.000266      0.007282
      9.44562      9.10705     16.63204         0.003053      0.000244     -0.000570
      9.46062      7.28468     10.44768        -0.004211      0.001009     -0.001067
      9.42178      7.27769     22.80101        -0.002795     -0.008585     -0.012339
      4.69537     -4.59730     19.77073         0.001307     -0.000864     -0.001773
      4.71634     -6.41654     13.58566        -0.000589      0.000782      0.001183
      4.67709     -6.42879     25.93326        -0.001933      0.005396     -0.007897
      4.70132     -4.59409     16.63377        -0.000255      0.000754      0.000222
      4.68113     -6.44842     22.78867         0.007675     -0.007749      0.002418
     14.18202     -0.93905     22.81978        -0.003303      0.000135     -0.001036
      8.13254     -0.65085     26.63939        -0.014028     -0.007522     -0.011244
      7.61969     -1.86647     25.29362         0.003678     -0.007786     -0.009454
     10.72674      0.79962     27.86220        -0.007423     -0.005842      0.008899
     11.33889      1.02471     30.23145         0.005039     -0.003398      0.003545
      7.66504     -0.87796     31.41981        -0.016754      0.003853     -0.001404
      7.01637     -1.12757     29.01328        -0.009327      0.012654      0.001350
      8.80273     -0.16537     28.25401         0.000945      0.001870      0.013388
     10.02791      0.43218     28.60959        -0.010357     -0.002194     -0.015813
      8.31077     -0.51111     30.62133         0.001909      0.013920     -0.009278
     10.39111      0.56336     29.94898        -0.016682     -0.007829     -0.000257
      9.52668      0.08970     30.92832        -0.019768      0.004477     -0.008012
      7.95773     -0.63876     29.27989        -0.012803      0.003926     -0.014654
      9.88732      0.21184     32.23490        -0.011125      0.001068      0.003314
 -----------------------------------------------------------------------------------
    total drift:                               -0.014623     -0.092366      0.053884


--------------------------------------------------------------------------------------------------------



  FREE ENERGIE OF THE ION-ELECTRON SYSTEM (eV)
  ---------------------------------------------------
  free  energy   TOTEN  =     -1278.51339801 eV

  energy  without entropy=    -1278.51339801  energy(sigma->0) =    -1278.51339801
 


--------------------------------------------------------------------------------------------------------


    POTLOK:  cpu time     14.5731: real time     14.6012


--------------------------------------------------------------------------------------------------------


 stress matrix after NEB project (eV)
      3.66249      1.93019      0.19564
      1.93019      5.40511      0.32676
      0.19564      0.32676     -0.20940
  FORCES: max atom, RMS     0.021795    0.006829
  FORCE total and by dimension    0.105138    0.019768
  Stress total and by dimension    7.100302    5.405115


--------------------------------------------------------------------------------------------------------


  
 reached required accuracy - stopping structural energy minimisation
     LOOP+:  cpu time  25988.0426: real time  26043.5084
    4ORBIT:  cpu time      0.0000: real time      0.0000

 total amount of memory used by VASP MPI-rank0  1927112. kBytes
=======================================================================

   base      :      30000. kBytes
   nonlr-proj:      68540. kBytes
   fftplans  :      25218. kBytes
   grid      :     219322. kBytes
   one-center:       7371. kBytes
   wavefun   :    1576661. kBytes
 
  
  
 General timing and accounting informations for this job:
 ========================================================
  
                  Total CPU time used (sec):    26195.471
                            User time (sec):    26146.187
                          System time (sec):       49.284
                         Elapsed time (sec):    26251.771
  
                   Maximum memory used (kb):     2562956.
                   Average memory used (kb):          N/A
  
                          Minor page faults:     19364988
                          Major page faults:            0
                 Voluntary context switches:        15110
