 vasp.6.3.2 27Jun22 (build Jan 03 2024 23:25:20) gamma-only                     
  
 executed on           IFC15_impi date 2024.07.28  11:32:37
 running   96 mpi-ranks, with    1 threads/rank
 distrk:  each k-point on   96 cores,    1 groups
 distr:  one band on NCORE=   4 cores,   24 groups


--------------------------------------------------------------------------------------------------------


 INCAR:
   ENCUT = 600.00
   EDIFF = 1.00e-06
   EDIFFG = -0.01
   IBRION = 2
   ALGO = Normal
   ISMEAR = 0
   SIGMA = 0.05
   LCHARG = .FALSE.
   LWAVE = .FALSE.
   LREAL = Auto
   NELM = 2000
   NSW = 5000
   NCORE = 4
   ISPIN = 2
   GGA = MK
   PARAM1 = 0.1234
   PARAM2 = 1.0
   AGGAC = 0.0
   LUSE_VDW = .TRUE.
   LASPH = .TRUE.

 POTCAR:    PAW_PBE C 08Apr2002                   
 POTCAR:    PAW_PBE F 08Apr2002                   
 POTCAR:    PAW_PBE H 15Jun2001                   
 POTCAR:    PAW_PBE S 06Sep2000                   
 -----------------------------------------------------------------------------
|                                                                             |
|           W    W    AA    RRRRR   N    N  II  N    N   GGGG   !!!           |
|           W    W   A  A   R    R  NN   N  II  NN   N  G    G  !!!           |
|           W    W  A    A  R    R  N N  N  II  N N  N  G       !!!           |
|           W WW W  AAAAAA  RRRRR   N  N N  II  N  N N  G  GGG   !            |
|           WW  WW  A    A  R   R   N   NN  II  N   NN  G    G                |
|           W    W  A    A  R    R  N    N  II  N    N   GGGG   !!!           |
|                                                                             |
|     You use a magnetic or noncollinear calculation, but did not specify     |
|     the initial magnetic moment with the MAGMOM tag. Note that a            |
|     default of 1 will be used for all atoms. This ferromagnetic setup       |
|     may break the symmetry of the crystal, in particular it may rule        |
|     out finding an antiferromagnetic solution. Thence, we recommend         |
|     setting the initial magnetic moment manually or verifying carefully     |
|     that this magnetic setup is desired.                                    |
|                                                                             |
 -----------------------------------------------------------------------------

 -----------------------------------------------------------------------------
|                                                                             |
|               ----> ADVICE to this user running VASP <----                  |
|                                                                             |
|     You have switched on vdW-DFT.                                           |
|     This routine was written and supplied by Jiri Klimes. We recommend      |
|     that you carefully read and cite the following publications:            |
|       J. Klimes, D.R. Bowler, A. Michelides                                 |
|          J. Phys.: Cond Matt. 22 022201 (2010)                              |
|       J. Klimes, D.R. Bowler, A. Michelides                                 |
|          Phys. Rev. B. 83, 195131 (2011)                                    |
|     and references therein.                                                 |
|                                                                             |
 -----------------------------------------------------------------------------

 POTCAR:    PAW_PBE C 08Apr2002                   
   SHA256 =  253f7b50bb8d59471dbedb8285d89021f4a42ed1a2c5d38a03a736e69125dd95 C/POTCAR              
   COPYR  = (c) Copyright 08Apr2002 Georg Kresse                                                    
   COPYR  = This file is part of the software VASP. Any use, copying, and all other rights are regul
   COPYR  = If you do not have a valid VASP license, you may not use, copy or distribute this file. 
   VRHFIN =C: s2p2                                                                                  
   LEXCH  = PE                                                                                      
   EATOM  =   147.1560 eV,   10.8157 Ry                                                             
                                                                                                    
   TITEL  = PAW_PBE C 08Apr2002                                                                     
   LULTRA =        F    use ultrasoft PP ?                                                          
   IUNSCR =        1    unscreen: 0-lin 1-nonlin 2-no                                               
   RPACOR =    1.200    partial core radius                                                         
   POMASS =   12.011; ZVAL   =    4.000    mass and valenz                                          
   RCORE  =    1.500    outmost cutoff radius                                                       
   RWIGS  =    1.630; RWIGS  =    0.863    wigner-seitz radius (au A)                               
   ENMAX  =  400.000; ENMIN  =  300.000 eV                                                          
   ICORE  =        2    local potential                                                             
   LCOR   =        T    correct aug charges                                                         
   LPAW   =        T    paw PP                                                                      
   EAUG   =  644.873                                                                                
   DEXC   =    0.000                                                                                
   RMAX   =    1.529    core radius for proj-oper                                                   
   RAUG   =    1.300    factor for augmentation sphere                                              
   RDEP   =    1.501    radius for radial grids                                                     
   RDEPT  =    1.300    core radius for aug-charge                                                  
                                                                                                    
   Atomic configuration                                                                             
    4 entries                                                                                       
     n  l   j            E        occ.                                                              
     1  0  0.50      -273.3789   2.0000                                                             
     2  0  0.50       -13.7508   2.0000                                                             
     2  1  0.50        -5.2854   2.0000                                                             
     3  2  1.50        -5.4423   0.0000                                                             
   Description                                                                                      
     l       E           TYP  RCUT    TYP  RCUT                                                     
     0    -13.7508458     23  1.200                                                                 
     0     -8.2022199     23  1.200                                                                 
     1     -5.2854383     23  1.500                                                                 
     1     34.0145650     23  1.500                                                                 
     2     -5.4423304      7  1.500                                                                 
  local pseudopotential read in
  partial core-charges read in
  partial kinetic energy density read in
  atomic valenz-charges read in
  non local Contribution for L=           0  read in
    real space projection operators read in
  non local Contribution for L=           0  read in
    real space projection operators read in
  non local Contribution for L=           1  read in
    real space projection operators read in
  non local Contribution for L=           1  read in
    real space projection operators read in
    PAW grid and wavefunctions read in
 
   number of l-projection  operators is LMAX  =           4
   number of lm-projection operators is LMMAX =           8
 
 POTCAR:    PAW_PBE F 08Apr2002                   
   SHA256 =  53c630871ac675939349fc2b976745ee17808dedc90b5bdde026bc81f0faf456 F/POTCAR              
   COPYR  = (c) Copyright 08Apr2002 Georg Kresse                                                    
   COPYR  = This file is part of the software VASP. Any use, copying, and all other rights are regul
   COPYR  = If you do not have a valid VASP license, you may not use, copy or distribute this file. 
   VRHFIN =F: s2p5                                                                                  
   LEXCH  = PE                                                                                      
   EATOM  =   659.6475 eV,   48.4827 Ry                                                             
                                                                                                    
   TITEL  = PAW_PBE F 08Apr2002                                                                     
   LULTRA =        F    use ultrasoft PP ?                                                          
   IUNSCR =        1    unscreen: 0-lin 1-nonlin 2-no                                               
   RPACOR =    1.200    partial core radius                                                         
   POMASS =   18.998; ZVAL   =    7.000    mass and valenz                                          
   RCORE  =    1.520    outmost cutoff radius                                                       
   RWIGS  =    1.500; RWIGS  =    0.794    wigner-seitz radius (au A)                               
   ENMAX  =  400.000; ENMIN  =  300.000 eV                                                          
   ICORE  =        2    local potential                                                             
   LCOR   =        T    correct aug charges                                                         
   LPAW   =        T    paw PP                                                                      
   EAUG   =  613.614                                                                                
   RMAX   =    1.555    core radius for proj-oper                                                   
   RAUG   =    1.300    factor for augmentation sphere                                              
   RDEP   =    1.539    radius for radial grids                                                     
   RDEPT  =    1.299    core radius for aug-charge                                                  
                                                                                                    
   Atomic configuration                                                                             
    4 entries                                                                                       
     n  l   j            E        occ.                                                              
     1  0  0.50      -663.3661   2.0000                                                             
     2  0  0.50       -29.8995   2.0000                                                             
     2  1  0.50       -11.1114   5.0000                                                             
     3  2  1.50       -10.8847   0.0000                                                             
   Description                                                                                      
     l       E           TYP  RCUT    TYP  RCUT                                                     
     0    -29.8995018     23  1.200                                                                 
     0     -9.5240782     23  1.200                                                                 
     1    -11.1113914     23  1.520                                                                 
     1      1.3605826     23  1.520                                                                 
     2    -10.8846608      7  1.500                                                                 
  local pseudopotential read in
  partial core-charges read in
  partial kinetic energy density read in
  atomic valenz-charges read in
  non local Contribution for L=           0  read in
    real space projection operators read in
  non local Contribution for L=           0  read in
    real space projection operators read in
  non local Contribution for L=           1  read in
    real space projection operators read in
  non local Contribution for L=           1  read in
    real space projection operators read in
    PAW grid and wavefunctions read in
 
   number of l-projection  operators is LMAX  =           4
   number of lm-projection operators is LMMAX =           8
 
 POTCAR:    PAW_PBE H 15Jun2001                   
   SHA256 =  030f79b5d3ab3cf0e668861823c8fb652ff669f3e15e46930bd03bfd63a607b6 H/POTCAR              
   COPYR  = (c) Copyright 15Jun2001 Georg Kresse                                                    
   COPYR  = This file is part of the software VASP. Any use, copying, and all other rights are regul
   COPYR  = If you do not have a valid VASP license, you may not use, copy or distribute this file. 
   VRHFIN =H: ultrasoft test                                                                        
   LEXCH  = PE                                                                                      
   EATOM  =    12.4884 eV,    0.9179 Ry                                                             
                                                                                                    
   TITEL  = PAW_PBE H 15Jun2001                                                                     
   LULTRA =        F    use ultrasoft PP ?                                                          
   IUNSCR =        0    unscreen: 0-lin 1-nonlin 2-no                                               
   RPACOR =    0.000    partial core radius                                                         
   POMASS =    1.000; ZVAL   =    1.000    mass and valenz                                          
   RCORE  =    1.100    outmost cutoff radius                                                       
   RWIGS  =    0.700; RWIGS  =    0.370    wigner-seitz radius (au A)                               
   ENMAX  =  250.000; ENMIN  =  200.000 eV                                                          
   RCLOC  =    0.701    cutoff for local pot                                                        
   LCOR   =        T    correct aug charges                                                         
   LPAW   =        T    paw PP                                                                      
   EAUG   =  400.000                                                                                
   RMAX   =    1.123    core radius for proj-oper                                                   
   RAUG   =    1.200    factor for augmentation sphere                                              
   RDEP   =    1.112    radius for radial grids                                                     
   RDEPT  =    0.926    core radius for aug-charge                                                  
                                                                                                    
   Atomic configuration                                                                             
    2 entries                                                                                       
     n  l   j            E        occ.                                                              
     1  0  0.50        -6.4927   1.0000                                                             
     2  1  0.50        -3.4015   0.0000                                                             
   Description                                                                                      
     l       E           TYP  RCUT    TYP  RCUT                                                     
     0     -6.4927494     23  1.100                                                                 
     0      6.8029130     23  1.100                                                                 
     1     -4.0817478     23  1.100                                                                 
  local pseudopotential read in
  atomic valenz-charges read in
  non local Contribution for L=           0  read in
    real space projection operators read in
  non local Contribution for L=           0  read in
    real space projection operators read in
  non local Contribution for L=           1  read in
    real space projection operators read in
    PAW grid and wavefunctions read in
 
   number of l-projection  operators is LMAX  =           3
   number of lm-projection operators is LMMAX =           5
 
 POTCAR:    PAW_PBE S 06Sep2000                   
   SHA256 =  0fc7481fb0695f01bdc6462160264c5c84044ae9ec85a907d398b887a2bc3132 S/POTCAR              
   COPYR  = (c) Copyright 06Sep2000 Georg Kresse                                                    
   COPYR  = This file is part of the software VASP. Any use, copying, and all other rights are regul
   COPYR  = If you do not have a valid VASP license, you may not use, copy or distribute this file. 
   VRHFIN =S : s2p4                                                                                 
   LEXCH  = PE                                                                                      
   EATOM  =   276.8230 eV,   20.3459 Ry                                                             
                                                                                                    
   TITEL  = PAW_PBE S 06Sep2000                                                                     
   LULTRA =        F    use ultrasoft PP ?                                                          
   IUNSCR =        1    unscreen: 0-lin 1-nonlin 2-no                                               
   RPACOR =    1.500    partial core radius                                                         
   POMASS =   32.066; ZVAL   =    6.000    mass and valenz                                          
   RCORE  =    1.900    outmost cutoff radius                                                       
   RWIGS  =    2.200; RWIGS  =    1.164    wigner-seitz radius (au A)                               
   ENMAX  =  258.689; ENMIN  =  194.016 eV                                                          
   ICORE  =        2    local potential                                                             
   LCOR   =        T    correct aug charges                                                         
   LPAW   =        T    paw PP                                                                      
   EAUG   =  335.092                                                                                
   DEXC   =    0.000                                                                                
   RMAX   =    1.942    core radius for proj-oper                                                   
   RAUG   =    1.300    factor for augmentation sphere                                              
   RDEP   =    1.954    radius for radial grids                                                     
   RDEPT  =    1.744    core radius for aug-charge                                                  
                                                                                                    
   Atomic configuration                                                                             
    6 entries                                                                                       
     n  l   j            E        occ.                                                              
     1  0  0.50     -2405.8406   2.0000                                                             
     2  0  0.50      -211.7007   2.0000                                                             
     2  1  1.50      -156.4958   6.0000                                                             
     3  0  0.50       -17.2562   2.0000                                                             
     3  1  0.50        -7.0085   4.0000                                                             
     3  2  1.50        -6.8029   0.0000                                                             
   Description                                                                                      
     l       E           TYP  RCUT    TYP  RCUT                                                     
     0    -17.2561641     23  1.900                                                                 
     0    -15.8743224     23  1.900                                                                 
     1     -7.0085400     23  1.900                                                                 
     1     -2.7779785     23  1.900                                                                 
     2     -6.8029130     23  1.900                                                                 
  local pseudopotential read in
  partial core-charges read in
  partial kinetic energy density read in
  atomic valenz-charges read in
  non local Contribution for L=           0  read in
    real space projection operators read in
  non local Contribution for L=           0  read in
    real space projection operators read in
  non local Contribution for L=           1  read in
    real space projection operators read in
  non local Contribution for L=           1  read in
    real space projection operators read in
    PAW grid and wavefunctions read in
 
   number of l-projection  operators is LMAX  =           4
   number of lm-projection operators is LMMAX =           8
 
 Optimization of the real space projectors (new method)

 maximal supplied QI-value         = 25.13
 optimisation between [QCUT,QGAM] = [ 12.32, 24.88] = [ 42.47,173.37] Ry 
 Optimized for a Real-space Cutoff    1.06 Angstroem

   l    n(q)    QCUT    max X(q) W(low)/X(q) W(high)/X(q)  e(spline) 
   0      8    12.315   115.676    0.34E-03    0.18E-03    0.23E-06
   0      8    12.315    87.132    0.34E-03    0.18E-03    0.22E-06
   1      7    12.315     4.429    0.45E-03    0.12E-03    0.18E-06
   1      7    12.315     2.733    0.35E-03    0.97E-04    0.15E-06
 Optimization of the real space projectors (new method)

 maximal supplied QI-value         = 24.76
 optimisation between [QCUT,QGAM] = [ 12.38, 25.00] = [ 42.90,175.06] Ry 
 Optimized for a Real-space Cutoff    1.03 Angstroem

   l    n(q)    QCUT    max X(q) W(low)/X(q) W(high)/X(q)  e(spline) 
   0      8    12.378    14.049    0.35E-03    0.80E-04    0.14E-06
   0      8    12.378     8.945    0.50E-03    0.13E-03    0.19E-06
   1      7    12.378     7.086    0.49E-03    0.21E-03    0.21E-06
   1      7    12.378     6.747    0.44E-03    0.20E-03    0.19E-06
 Optimization of the real space projectors (new method)

 maximal supplied QI-value         = 34.20
 optimisation between [QCUT,QGAM] = [ 12.31, 24.97] = [ 42.46,174.58] Ry 
 Optimized for a Real-space Cutoff    1.00 Angstroem

   l    n(q)    QCUT    max X(q) W(low)/X(q) W(high)/X(q)  e(spline) 
   0      7    12.313    19.460    0.14E-03    0.42E-03    0.16E-06
   0      7    12.313    12.209    0.12E-03    0.40E-03    0.16E-06
   1      7    12.313     4.655    0.33E-03    0.59E-03    0.89E-07
 Optimization of the real space projectors (new method)

 maximal supplied QI-value         = 19.84
 optimisation between [QCUT,QGAM] = [ 12.50, 25.00] = [ 43.76,175.03] Ry 
 Optimized for a Real-space Cutoff    1.06 Angstroem

   l    n(q)    QCUT    max X(q) W(low)/X(q) W(high)/X(q)  e(spline) 
   0      8    12.501   187.594    0.26E-03    0.17E-03    0.97E-07
   0      8    12.501   164.243    0.26E-03    0.17E-03    0.96E-07
   1      7    12.501    67.533    0.50E-03    0.61E-03    0.91E-07
   1      7    12.501    50.729    0.48E-03    0.60E-03    0.90E-07
 -----------------------------------------------------------------------------
|                                                                             |
|               ----> ADVICE to this user running VASP <----                  |
|                                                                             |
|     You enforced a specific xc type in the INCAR file but a different       |
|     type was found in the POTCAR file.                                      |
|     I HOPE YOU KNOW WHAT YOU ARE DOING!                                     |
|                                                                             |
 -----------------------------------------------------------------------------

  PAW_PBE C 08Apr2002                   :
 energy of atom  1       EATOM= -147.1560
 kinetic energy error for atom=    0.0057 (will be added to EATOM!!)
  PAW_PBE F 08Apr2002                   :
 energy of atom  2       EATOM= -659.6475
 kinetic energy error for atom=    0.0256 (will be added to EATOM!!)
  PAW_PBE H 15Jun2001                   :
 energy of atom  3       EATOM=  -12.4884
 kinetic energy error for atom=    0.0004 (will be added to EATOM!!)
  PAW_PBE S 06Sep2000                   :
 energy of atom  4       EATOM= -276.8230
 kinetic energy error for atom=    0.0009 (will be added to EATOM!!)
 
 
 POSCAR: C  F  H  S
  positions in direct lattice
  velocities in cartesian coordinates
 exchange correlation table for  LEXCH =       43
   RHO(1)=    0.500       N(1)  =     2000
   RHO(2)=  100.500       N(2)  =     4000

 VTST: version 4.1, (05/19/21)

 CHAIN: initializing optimizer
 
 OPT: Using VASP Conjugate-Gradient optimizer
 CHAIN: Read ICHAIN            0
 
 POSCAR: C  F  H  S
  positions in direct lattice
  velocities in cartesian coordinates
 


--------------------------------------------------------------------------------------------------------


 ion  position               nearest neighbor table
   1  0.511  0.511  0.483-   6 1.40   2 1.40  13 1.77
   2  0.556  0.600  0.502-   9 1.09   4 1.39   1 1.40
   3  0.469  0.423  0.541-  11 1.09   5 1.39   6 1.40
   4  0.558  0.600  0.541-  10 1.09   5 1.39   2 1.39
   5  0.515  0.511  0.559-   7 1.37   3 1.39   4 1.39
   6  0.467  0.423  0.502-  12 1.09   3 1.40   1 1.40
   7  0.517  0.511  0.597-   5 1.37
   8  0.466  0.420  0.428-  13 1.35
   9  0.590  0.669  0.488-   2 1.09
  10  0.593  0.668  0.556-   4 1.09
  11  0.436  0.354  0.556-   3 1.09
  12  0.432  0.353  0.488-   6 1.09
  13  0.511  0.517  0.435-   8 1.35   1 1.77
 
  LATTYP: Found a hexagonal cell.
 ALAT       =    15.8227970706
 C/A-ratio  =     2.3015724012
  
  Lattice vectors:
  
 A1 = (   7.9113985353, -13.7029442220,   0.0000000000)
 A2 = (   7.9113985353,  13.7029442220,   0.0000000000)
 A3 = (   0.0000000000,   0.0000000000,  36.4173130480)


Analysis of symmetry for initial positions (statically):
=====================================================================
 Subroutine PRICEL returns:
 Original cell was already a primitive cell.
 

 Routine SETGRP: Setting up the symmetry group for a 
 hexagonal supercell.


 Subroutine GETGRP returns: Found  1 space group operations
 (whereof  1 operations were pure point group operations)
 out of a pool of 24 trial point group operations.


The static configuration has the point symmetry C_1 .


Analysis of symmetry for dynamics (positions and initial velocities):
=====================================================================
 Subroutine PRICEL returns:
 Original cell was already a primitive cell.
 

 Routine SETGRP: Setting up the symmetry group for a 
 hexagonal supercell.


 Subroutine GETGRP returns: Found  1 space group operations
 (whereof  1 operations were pure point group operations)
 out of a pool of 24 trial point group operations.


The dynamic configuration has the point symmetry C_1 .


Analysis of structural, dynamic, and magnetic symmetry:
=====================================================================
 Subroutine PRICEL returns:
 Original cell was already a primitive cell.
 

 Routine SETGRP: Setting up the symmetry group for a 
 hexagonal supercell.


 Subroutine GETGRP returns: Found  1 space group operations
 (whereof  1 operations were pure point group operations)
 out of a pool of 24 trial point group operations.


The overall configuration has the point symmetry C_1 .


 Subroutine INISYM returns: Found  1 space group operations
 (whereof  1 operations are pure point group operations),
 and found     1 'primitive' translations


----------------------------------------------------------------------------------------

                                     Primitive cell                                     

  volume of cell :    7895.9620

  direct lattice vectors                    reciprocal lattice vectors
     7.911398535-13.702944222  0.000000000     0.063199951 -0.036488509  0.000000000
     7.911398535 13.702944222  0.000000000     0.063199951  0.036488509  0.000000000
     0.000000000  0.000000000 36.417313048     0.000000000  0.000000000  0.027459467

  length of vectors
    15.822797071 15.822797071 36.417313048     0.072977017  0.072977017  0.027459467

  position of ions in fractional coordinates (direct lattice)
     0.510841130  0.511172962  0.483013210
     0.556204043  0.599570851  0.502477368
     0.469293870  0.422579310  0.540768062
     0.558303224  0.599982142  0.540758092
     0.514788751  0.511263201  0.559205536
     0.467391060  0.422846105  0.502458965
     0.516871708  0.511295962  0.596765491
     0.466105432  0.420401395  0.428390847
     0.590384252  0.668842404  0.487641301
     0.593295019  0.668114974  0.556224116
     0.435824101  0.354437409  0.556240532
     0.431607322  0.353413914  0.487759195
     0.511134625  0.517455253  0.434536107

  ion indices of the primitive-cell ions
   primitive index   ion index
                 1           1
                 2           2
                 3           3
                 4           4
                 5           5
                 6           6
                 7           7
                 8           8
                 9           9
                10          10
                11          11
                12          12
                13          13

----------------------------------------------------------------------------------------

 
 
 KPOINTS: K-Points                                

Automatic generation of k-mesh.
 Grid dimensions read from file:
 generate k-points for:    1    1    1

 Generating k-lattice:

  Cartesian coordinates                     Fractional coordinates (reciprocal lattice)
     0.063199951 -0.036488509  0.000000000     1.000000000  0.000000000  0.000000000
     0.063199951  0.036488509  0.000000000    -0.000000000  1.000000000  0.000000000
     0.000000000  0.000000000  0.027459467     0.000000000  0.000000000  1.000000000

  Length of vectors
     0.072977017  0.072977017  0.027459467

  Shift w.r.t. Gamma in fractional coordinates (k-lattice)
     0.000000000  0.000000000  0.000000000

 
 Subroutine IBZKPT returns following result:
 ===========================================
 
 Found      1 irreducible k-points:
 
 Following reciprocal coordinates:
            Coordinates               Weight
  0.000000  0.000000  0.000000      1.000000
 
 Following cartesian coordinates:
            Coordinates               Weight
  0.000000  0.000000  0.000000      1.000000
 


--------------------------------------------------------------------------------------------------------




 Dimension of arrays:
   k-points           NKPTS =      1   k-points in BZ     NKDIM =      1   number of bands    NBANDS=     48
   number of dos      NEDOS =    301   number of ions     NIONS =     13
   non local maximal  LDIM  =      4   non local SUM 2l+1 LMDIM =      8
   total plane-waves  NPLWV = ******
   max r-space proj   IRMAX =   1363   max aug-charges    IRDMAX=   8435
   dimension x,y,z NGX =    96 NGY =   96 NGZ =  224
   dimension x,y,z NGXF=   192 NGYF=  192 NGZF=  448
   support grid    NGXF=   192 NGYF=  192 NGZF=  448
   ions per type =               6   1   5   1
   NGX,Y,Z   is equivalent  to a cutoff of  10.09, 10.09, 10.23 a.u.
   NGXF,Y,Z  is equivalent  to a cutoff of  20.17, 20.17, 20.45 a.u.

 SYSTEM =  unknown system                          
 POSCAR =  C  F  H  S                              

 Startparameter for this run:
   NWRITE =      2    write-flag & timer
   PREC   = normal    normal or accurate (medium, high low for compatibility)
   ISTART =      0    job   : 0-new  1-cont  2-samecut
   ICHARG =      2    charge: 1-file 2-atom 10-const
   ISPIN  =      2    spin polarized calculation?
   LNONCOLLINEAR =      F non collinear calculations
   LSORBIT =      F    spin-orbit coupling
   INIWAV =      1    electr: 0-lowe 1-rand  2-diag
   LASPH  =      T    aspherical Exc in radial PAW
 Electronic Relaxation 1
   ENCUT  =  600.0 eV  44.10 Ry    6.64 a.u.  31.60 31.60 72.73*2*pi/ulx,y,z
   ENINI  =  600.0     initial cutoff
   ENAUG  =  644.9 eV  augmentation charge cutoff
   NELM   =   2000;   NELMIN=  2; NELMDL=  0     # of ELM steps 
   EDIFF  = 0.1E-05   stopping-criterion for ELM
   LREAL  =      T    real-space projection
   NLSPLINE    = F    spline interpolate recip. space projectors
   LCOMPAT=      F    compatible to vasp.4.4
   GGA_COMPAT  = T    GGA compatible to vasp.4.4-vasp.4.6
   LMAXPAW     = -100 max onsite density
   LMAXMIX     =    2 max onsite mixed and CHGCAR
   VOSKOWN=      0    Vosko Wilk Nusair interpolation
   ROPT   =   -0.00050  -0.00050  -0.00050  -0.00050
 Ionic relaxation
   EDIFFG = -.1E-01   stopping-criterion for IOM
   NSW    =   5000    number of steps for IOM
   NBLOCK =      1;   KBLOCK =   5000    inner block; outer block 
   IBRION =      2    ionic relax: 0-MD 1-quasi-New 2-CG
   NFREE  =      1    steps in history (QN), initial steepest desc. (CG)
   ISIF   =      2    stress and relaxation
   IWAVPR =     11    prediction:  0-non 1-charg 2-wave 3-comb
   ISYM   =      2    0-nonsym 1-usesym 2-fastsym
   LCORR  =      T    Harris-Foulkes like correction to forces

   POTIM  = 0.5000    time-step for ionic-motion
   TEIN   =    0.0    initial temperature
   TEBEG  =    0.0;   TEEND  =   0.0 temperature during run
   SMASS  =  -3.00    Nose mass-parameter (am)
   estimated Nose-frequenzy (Omega)   =  0.10E-29 period in steps = 0.13E+47 mass=  -0.572E-26a.u.
   SCALEE = 1.0000    scale energy and forces
   NPACO  =    256;   APACO  = 10.0  distance and # of slots for P.C.
   PSTRESS=    0.0 pullay stress

  Mass of Ions in am
   POMASS =  12.01 19.00  1.00 32.07
  Ionic Valenz
   ZVAL   =   4.00  7.00  1.00  6.00
  Atomic Wigner-Seitz radii
   RWIGS  =  -1.00 -1.00 -1.00 -1.00
  virtual crystal weights 
   VCA    =   1.00  1.00  1.00  1.00
   NELECT =      42.0000    total number of electrons
   NUPDOWN=      -1.0000    fix difference up-down

 DOS related values:
   EMIN   =  10.00;   EMAX   =-10.00  energy-range for DOS
   EFERMI =   0.00
   ISMEAR =     0;   SIGMA  =   0.05  broadening in eV -4-tet -1-fermi 0-gaus

 Electronic relaxation 2 (details)
   IALGO  =     38    algorithm
   LDIAG  =      T    sub-space diagonalisation (order eigenvalues)
   LSUBROT=      F    optimize rotation matrix (better conditioning)
   TURBO    =      0    0=normal 1=particle mesh
   IRESTART =      0    0=no restart 2=restart with 2 vectors
   NREBOOT  =      0    no. of reboots
   NMIN     =      0    reboot dimension
   EREF     =   0.00    reference energy to select bands
   IMIX   =      4    mixing-type and parameters
     AMIX     =   0.40;   BMIX     =  1.00
     AMIX_MAG =   1.60;   BMIX_MAG =  1.00
     AMIN     =   0.10
     WC   =   100.;   INIMIX=   1;  MIXPRE=   1;  MAXMIX= -45

 Intra band minimization:
   WEIMIN = 0.0010     energy-eigenvalue tresh-hold
   EBREAK =  0.52E-08  absolut break condition
   DEPER  =   0.30     relativ break condition  

   TIME   =   0.40     timestep for ELM

  volume/ion in A,a.u.               =     607.38      4098.81
  Fermi-wavevector in a.u.,A,eV,Ry     =   0.285774  0.540035  1.111145  0.081667
  Thomas-Fermi vector in A             =   1.139896
 
 Write flags
   LWAVE        =      F    write WAVECAR
   LDOWNSAMPLE  =      F    k-point downsampling of WAVECAR
   LCHARG       =      F    write CHGCAR
   LVTOT        =      F    write LOCPOT, total local potential
   LVHAR        =      F    write LOCPOT, Hartree potential only
   LELF         =      F    write electronic localiz. function (ELF)
   LORBIT       =      0    0 simple, 1 ext, 2 COOP (PROOUT), +10 PAW based schemes


 Dipole corrections
   LMONO  =      F    monopole corrections only (constant potential shift)
   LDIPOL =      F    correct potential (dipole corrections)
   IDIPOL =      0    1-x, 2-y, 3-z, 4-all directions 
   EPSILON=  1.0000000 bulk dielectric constant

 Exchange correlation treatment:
   GGA     =    MK    GGA type
   LEXCH   =    43    internal setting for exchange type
   LIBXC   =     F    Libxc                    
   VOSKOWN =     0    Vosko Wilk Nusair interpolation
   LHFCALC =     F    Hartree Fock is set to
   LHFONE  =     F    Hartree Fock one center treatment
   AEXX    =    0.0000 exact exchange contribution

 vdW DFT:
   LUSE_VDW   =     T    switch on vdW DFT
   Zab_VDW    =-.8491    correlation parameter
   PARAM1     =0.1234
   PARAM2     =1.0000
   PARAM3     =0.0000
   -- rVV10 --
   BPARAM     = 6.3000
   CPARAM     = 0.0093

 Linear response parameters
   LEPSILON=     F    determine dielectric tensor
   LRPA    =     F    only Hartree local field effects (RPA)
   LNABLA  =     F    use nabla operator in PAW spheres
   LVEL    =     F    velocity operator in full k-point grid
   CSHIFT  =0.1000    complex shift for real part using Kramers Kronig
   OMEGAMAX=  -1.0    maximum frequency
   DEG_THRESHOLD= 0.2000000E-02 threshold for treating states as degnerate
   RTIME   =   -0.100 relaxation time in fs
  (WPLASMAI=    0.000 imaginary part of plasma frequency in eV, 0.658/RTIME)
   DFIELD  = 0.0000000 0.0000000 0.0000000 field for delta impulse in time
 
  Optional k-point grid parameters
   LKPOINTS_OPT  =     F    use optional k-point grid
   KPOINTS_OPT_MODE=     1    mode for optional k-point grid
 
 Orbital magnetization related:
   ORBITALMAG=     F  switch on orbital magnetization
   LCHIMAG   =     F  perturbation theory with respect to B field
   DQ        =  0.001000  dq finite difference perturbation B field
   LLRAUG    =     F  two centre corrections for induced B field



--------------------------------------------------------------------------------------------------------


 conjugate gradient relaxation of ions
 charge density and potential will be updated during run
 spin polarized calculation
 Variant of blocked Davidson
 Davidson routine will perform the subspace rotation
 perform sub-space diagonalisation
    after iterative eigenvector-optimisation
 modified Broyden-mixing scheme, WC =      100.0
 initial mixing is a Kerker type mixing with AMIX =  0.4000 and BMIX =      1.0000
 Hartree-type preconditioning will be used
 using additional bands           27
 real space projection scheme for non local part
 use partial core corrections
 calculate Harris-corrections to forces 
   (improved forces if not selfconsistent)
 use gradient corrections 
 use of overlap-Matrix (Vanderbilt PP)
 Gauss-broadening in eV      SIGMA  =   0.05


--------------------------------------------------------------------------------------------------------


  energy-cutoff  :      600.00
  volume of cell :     7895.96
      direct lattice vectors                 reciprocal lattice vectors
     7.911398535-13.702944222  0.000000000     0.063199951 -0.036488509  0.000000000
     7.911398535 13.702944222  0.000000000     0.063199951  0.036488509  0.000000000
     0.000000000  0.000000000 36.417313048     0.000000000  0.000000000  0.027459467

  length of vectors
    15.822797071 15.822797071 36.417313048     0.072977017  0.072977017  0.027459467


 
 k-points in units of 2pi/SCALE and weight: K-Points                                
   0.00000000  0.00000000  0.00000000       1.000
 
 k-points in reciprocal lattice and weights: K-Points                                
   0.00000000  0.00000000  0.00000000       1.000
 
 position of ions in fractional coordinates (direct lattice) 
   0.51084113  0.51117296  0.48301321
   0.55620404  0.59957085  0.50247737
   0.46929387  0.42257931  0.54076806
   0.55830322  0.59998214  0.54075809
   0.51478875  0.51126320  0.55920554
   0.46739106  0.42284610  0.50245896
   0.51687171  0.51129596  0.59676549
   0.46610543  0.42040139  0.42839085
   0.59038425  0.66884240  0.48764130
   0.59329502  0.66811497  0.55622412
   0.43582410  0.35443741  0.55624053
   0.43160732  0.35341391  0.48775919
   0.51113462  0.51745525  0.43453611
 
 position of ions in cartesian coordinates  (Angst):
   8.08556079  0.00454708 17.59004326
   9.14379580  0.59425294 18.29887559
   7.05596417 -0.64012701 19.69331980
   9.16365715  0.57112389 19.69295673
   8.11750591 -0.04831042 20.36476307
   7.04302100 -0.61039703 18.29820541
   8.13424420 -0.07640415 21.73259570
   7.01350881 -0.62627987 15.60084356
   9.96224392  1.07510768 17.75858593
   9.97951717  1.02525367 20.25618775
   6.25207375 -1.11523731 20.25678559
   6.21061586 -1.07147991 17.76287929
   8.13758445  0.08661121 15.82463744
 


--------------------------------------------------------------------------------------------------------


 use parallel FFT for orbitals z direction half grid
 k-point   1 :   0.0000 0.0000 0.0000  plane waves:  131815

 maximum and minimum number of plane-waves per node :     32957    32949

 maximum number of plane-waves:    131815
 maximum index in each direction: 
   IXMAX=   31   IYMAX=   31   IZMAX=   72
   IXMIN=  -31   IYMIN=  -31   IZMIN=    0


 real space projection operators:
  total allocation   :        836.95 KBytes
  max/ min on nodes  :        212.80        205.98


 parallel 3D FFT for wavefunctions:
    minimum data exchange during FFTs selected (reduces bandwidth)
 parallel 3D FFT for charge:
    minimum data exchange during FFTs selected (reduces bandwidth)


 total amount of memory used by VASP MPI-rank0   107199. kBytes
=======================================================================

   base      :      30000. kBytes
   nonlr-proj:        259. kBytes
   fftplans  :      16881. kBytes
   grid      :      57937. kBytes
   one-center:         12. kBytes
   wavefun   :       2110. kBytes
 
     INWAV:  cpu time      0.0005: real time      0.0007
 Broyden mixing: mesh for mixing (old mesh)
   NGX = 63   NGY = 63   NGZ =145
  (NGX  =192   NGY  =192   NGZ  =448)
  gives a total of 575505 points

 initial charge density was supplied:
 charge density of overlapping atoms calculated
 number of electron      42.0000000 magnetization      13.0000000
 keeping initial charge density in first step


--------------------------------------------------------------------------------------------------------


 Maximum index for non-local projection operator          327
 Maximum index for augmentation-charges          430 (set IRDMAX)


--------------------------------------------------------------------------------------------------------


 First call to EWALD:  gamma=   0.089
 Maximum number of real-space cells 4x 4x 2
 Maximum number of reciprocal cells 2x 2x 5

    FEWALD:  cpu time      0.0071: real time      0.0071


--------------------------------------- Iteration      1(   1)  ---------------------------------------


vdW kernel read from vdw_kernel.bindat
  0.0000  0.2424  0.5071  0.7962  1.1119  1.4567  1.8333  2.2446  2.6937  3.1842
  3.7199  4.3049  4.9438  5.6415  6.4036  7.2358  8.1446  9.1372 10.2212 11.4050
 12.6979 14.1099 15.6519 17.3360 19.1751 21.1837 23.3773 25.7729 28.3892 31.2465
 34.3669 37.7748 41.4965 45.5611 50.0000
 
    POTLOK:  cpu time      9.1452: real time      9.2342
    SETDIJ:  cpu time      1.3239: real time      1.3254
     EDDAV:  cpu time      1.1584: real time      1.2251
       DOS:  cpu time      0.0029: real time      0.0030
    --------------------------------------------
      LOOP:  cpu time     11.6306: real time     11.7879

 eigenvalue-minimisations  :   288
 total energy-change (2. order) : 0.2573877E+03  (-0.1119862E+04)
 number of electron      42.0000000 magnetization      13.0000000
 augmentation part       42.0000000 magnetization      13.0000000

 Free energy of the ion-electron system (eV)
  ---------------------------------------------------
  alpha Z        PSCENC =         0.98749813
  Ewald energy   TEWEN  =      3430.62683731
  -Hartree energ DENC   =     -4829.31014182
  -exchange      EXHF   =         0.00000000
  -V(xc)+E(xc)   XCENC  =       141.43257757
  PAW double counting   =      1418.44267326    -1420.58306636
  entropy T*S    EENTRO =        -0.00192089
  eigenvalues    EBANDS =      -374.77698504
  atomic energy  EATOM  =      1890.57022460
  Solvation  Ediel_sol  =         0.00000000
  ---------------------------------------------------
  free energy    TOTEN  =       257.38769676 eV

  energy without entropy =      257.38961765  energy(sigma->0) =      257.38865720


--------------------------------------------------------------------------------------------------------




--------------------------------------- Iteration      1(   2)  ---------------------------------------


     EDDAV:  cpu time      1.2255: real time      1.2265
       DOS:  cpu time      0.0008: real time      0.0008
    --------------------------------------------
      LOOP:  cpu time      1.2263: real time      1.2272

 eigenvalue-minimisations  :   336
 total energy-change (2. order) :-0.2776322E+03  (-0.2714164E+03)
 number of electron      42.0000000 magnetization      13.0000000
 augmentation part       42.0000000 magnetization      13.0000000

 Free energy of the ion-electron system (eV)
  ---------------------------------------------------
  alpha Z        PSCENC =         0.98749813
  Ewald energy   TEWEN  =      3430.62683731
  -Hartree energ DENC   =     -4829.31014182
  -exchange      EXHF   =         0.00000000
  -V(xc)+E(xc)   XCENC  =       141.43257757
  PAW double counting   =      1418.44267326    -1420.58306636
  entropy T*S    EENTRO =        -0.00000000
  eigenvalues    EBANDS =      -652.41109420
  atomic energy  EATOM  =      1890.57022460
  Solvation  Ediel_sol  =         0.00000000
  ---------------------------------------------------
  free energy    TOTEN  =       -20.24449151 eV

  energy without entropy =      -20.24449151  energy(sigma->0) =      -20.24449151


--------------------------------------------------------------------------------------------------------




--------------------------------------- Iteration      1(   3)  ---------------------------------------


     EDDAV:  cpu time      1.0567: real time      1.0577
       DOS:  cpu time      0.0008: real time      0.0008
    --------------------------------------------
      LOOP:  cpu time      1.0575: real time      1.0584

 eigenvalue-minimisations  :   288
 total energy-change (2. order) :-0.4513188E+02  (-0.4473021E+02)
 number of electron      42.0000000 magnetization      13.0000000
 augmentation part       42.0000000 magnetization      13.0000000

 Free energy of the ion-electron system (eV)
  ---------------------------------------------------
  alpha Z        PSCENC =         0.98749813
  Ewald energy   TEWEN  =      3430.62683731
  -Hartree energ DENC   =     -4829.31014182
  -exchange      EXHF   =         0.00000000
  -V(xc)+E(xc)   XCENC  =       141.43257757
  PAW double counting   =      1418.44267326    -1420.58306636
  entropy T*S    EENTRO =        -0.00000000
  eigenvalues    EBANDS =      -697.54297045
  atomic energy  EATOM  =      1890.57022460
  Solvation  Ediel_sol  =         0.00000000
  ---------------------------------------------------
  free energy    TOTEN  =       -65.37636776 eV

  energy without entropy =      -65.37636776  energy(sigma->0) =      -65.37636776


--------------------------------------------------------------------------------------------------------




--------------------------------------- Iteration      1(   4)  ---------------------------------------


     EDDAV:  cpu time      1.1372: real time      1.1392
       DOS:  cpu time      0.0011: real time      0.0011
    --------------------------------------------
      LOOP:  cpu time      1.1384: real time      1.1404

 eigenvalue-minimisations  :   312
 total energy-change (2. order) :-0.2046059E+01  (-0.2034903E+01)
 number of electron      42.0000000 magnetization      13.0000000
 augmentation part       42.0000000 magnetization      13.0000000

 Free energy of the ion-electron system (eV)
  ---------------------------------------------------
  alpha Z        PSCENC =         0.98749813
  Ewald energy   TEWEN  =      3430.62683731
  -Hartree energ DENC   =     -4829.31014182
  -exchange      EXHF   =         0.00000000
  -V(xc)+E(xc)   XCENC  =       141.43257757
  PAW double counting   =      1418.44267326    -1420.58306636
  entropy T*S    EENTRO =        -0.00000000
  eigenvalues    EBANDS =      -699.58902911
  atomic energy  EATOM  =      1890.57022460
  Solvation  Ediel_sol  =         0.00000000
  ---------------------------------------------------
  free energy    TOTEN  =       -67.42242642 eV

  energy without entropy =      -67.42242642  energy(sigma->0) =      -67.42242642


--------------------------------------------------------------------------------------------------------




--------------------------------------- Iteration      1(   5)  ---------------------------------------


     EDDAV:  cpu time      0.7779: real time      0.7789
       DOS:  cpu time      0.0008: real time      0.0008
    CHARGE:  cpu time      0.2145: real time      0.2177
    MIXING:  cpu time      0.0268: real time      0.0268
    --------------------------------------------
      LOOP:  cpu time      1.0201: real time      1.0242

 eigenvalue-minimisations  :   192
 total energy-change (2. order) :-0.3312129E-01  (-0.3311220E-01)
 number of electron      42.0000003 magnetization      12.3987321
 augmentation part        1.2538494 magnetization      12.4371714

 Broyden mixing:
  rms(total) = 0.25797E+01    rms(broyden)= 0.25795E+01
  rms(prec ) = 0.26041E+01
  weight for this iteration     100.00

 Free energy of the ion-electron system (eV)
  ---------------------------------------------------
  alpha Z        PSCENC =         0.98749813
  Ewald energy   TEWEN  =      3430.62683731
  -Hartree energ DENC   =     -4829.31014182
  -exchange      EXHF   =         0.00000000
  -V(xc)+E(xc)   XCENC  =       141.43257757
  PAW double counting   =      1418.44267326    -1420.58306636
  entropy T*S    EENTRO =        -0.00000000
  eigenvalues    EBANDS =      -699.62215040
  atomic energy  EATOM  =      1890.57022460
  Solvation  Ediel_sol  =         0.00000000
  ---------------------------------------------------
  free energy    TOTEN  =       -67.45554771 eV

  energy without entropy =      -67.45554771  energy(sigma->0) =      -67.45554771


--------------------------------------------------------------------------------------------------------




--------------------------------------- Iteration      1(   6)  ---------------------------------------


    POTLOK:  cpu time      8.1065: real time      8.1158
    SETDIJ:  cpu time      1.3054: real time      1.3062
     EDDAV:  cpu time      1.0350: real time      1.0372
       DOS:  cpu time      0.0010: real time      0.0010
    CHARGE:  cpu time      0.1891: real time      0.1891
    MIXING:  cpu time      0.0245: real time      0.0350
    --------------------------------------------
      LOOP:  cpu time     10.6615: real time     10.6844

 eigenvalue-minimisations  :   264
 total energy-change (2. order) : 0.3110733E+01  (-0.2050526E+01)
 number of electron      42.0000003 magnetization      11.7831406
 augmentation part        1.1768538 magnetization      11.7521309

 Broyden mixing:
  rms(total) = 0.13041E+01    rms(broyden)= 0.13040E+01
  rms(prec ) = 0.13139E+01
  weight for this iteration     100.00

 eigenvalues of (default mixing * dielectric matrix)
  average eigenvalue GAMMA=   0.8997
  0.8997

 Free energy of the ion-electron system (eV)
  ---------------------------------------------------
  alpha Z        PSCENC =         0.98749813
  Ewald energy   TEWEN  =      3430.62683731
  -Hartree energ DENC   =     -4896.46706054
  -exchange      EXHF   =         0.00000000
  -V(xc)+E(xc)   XCENC  =       145.48766731
  PAW double counting   =      2200.86578594    -2203.74138563
  entropy T*S    EENTRO =        -0.00000000
  eigenvalues    EBANDS =      -632.67438228
  atomic energy  EATOM  =      1890.57022460
  Solvation  Ediel_sol  =         0.00000000
  ---------------------------------------------------
  free energy    TOTEN  =       -64.34481515 eV

  energy without entropy =      -64.34481515  energy(sigma->0) =      -64.34481515


--------------------------------------------------------------------------------------------------------




--------------------------------------- Iteration      1(   7)  ---------------------------------------


    POTLOK:  cpu time      8.0263: real time      8.0353
    SETDIJ:  cpu time      1.2987: real time      1.2995
     EDDAV:  cpu time      1.2286: real time      1.2308
       DOS:  cpu time      0.0011: real time      0.0011
    CHARGE:  cpu time      0.1625: real time      0.1625
    MIXING:  cpu time      0.0207: real time      0.0217
    --------------------------------------------
      LOOP:  cpu time     10.7379: real time     10.7510

 eigenvalue-minimisations  :   336
 total energy-change (2. order) :-0.2378076E+01  (-0.4842977E+00)
 number of electron      42.0000003 magnetization      10.9171217
 augmentation part        1.1368795 magnetization      10.9103581

 Broyden mixing:
  rms(total) = 0.74609E+00    rms(broyden)= 0.74608E+00
  rms(prec ) = 0.75034E+00
  weight for this iteration     100.00

 eigenvalues of (default mixing * dielectric matrix)
  average eigenvalue GAMMA=   1.1593
  0.7979  1.5207

 Free energy of the ion-electron system (eV)
  ---------------------------------------------------
  alpha Z        PSCENC =         0.98749813
  Ewald energy   TEWEN  =      3430.62683731
  -Hartree energ DENC   =     -4931.26194944
  -exchange      EXHF   =         0.00000000
  -V(xc)+E(xc)   XCENC  =       144.83317785
  PAW double counting   =      2875.60683513    -2878.72886925
  entropy T*S    EENTRO =        -0.00000000
  eigenvalues    EBANDS =      -599.35664525
  atomic energy  EATOM  =      1890.57022460
  Solvation  Ediel_sol  =         0.00000000
  ---------------------------------------------------
  free energy    TOTEN  =       -66.72289092 eV

  energy without entropy =      -66.72289092  energy(sigma->0) =      -66.72289092


--------------------------------------------------------------------------------------------------------




--------------------------------------- Iteration      1(   8)  ---------------------------------------


    POTLOK:  cpu time      8.1631: real time      8.1716
    SETDIJ:  cpu time      1.3010: real time      1.3018
     EDDAV:  cpu time      1.2315: real time      1.2334
       DOS:  cpu time      0.0010: real time      0.0011
    CHARGE:  cpu time      0.1620: real time      0.1620
    MIXING:  cpu time      0.0213: real time      0.0213
    --------------------------------------------
      LOOP:  cpu time     10.8800: real time     10.8912

 eigenvalue-minimisations  :   336
 total energy-change (2. order) :-0.7683744E+00  (-0.7799134E-01)
 number of electron      42.0000004 magnetization      10.2694303
 augmentation part        1.1222134 magnetization      10.2649745

 Broyden mixing:
  rms(total) = 0.34088E+00    rms(broyden)= 0.34087E+00
  rms(prec ) = 0.34241E+00
  weight for this iteration     100.00

 eigenvalues of (default mixing * dielectric matrix)
  average eigenvalue GAMMA=   1.2231
  2.0874  0.8972  0.6848

 Free energy of the ion-electron system (eV)
  ---------------------------------------------------
  alpha Z        PSCENC =         0.98749813
  Ewald energy   TEWEN  =      3430.62683731
  -Hartree energ DENC   =     -4957.79186418
  -exchange      EXHF   =         0.00000000
  -V(xc)+E(xc)   XCENC  =       145.44453573
  PAW double counting   =      3611.13991217    -3614.35424030
  entropy T*S    EENTRO =        -0.00000000
  eigenvalues    EBANDS =      -574.11416873
  atomic energy  EATOM  =      1890.57022460
  Solvation  Ediel_sol  =         0.00000000
  ---------------------------------------------------
  free energy    TOTEN  =       -67.49126527 eV

  energy without entropy =      -67.49126527  energy(sigma->0) =      -67.49126527


--------------------------------------------------------------------------------------------------------




--------------------------------------- Iteration      1(   9)  ---------------------------------------


    POTLOK:  cpu time      7.8775: real time      7.8855
    SETDIJ:  cpu time      1.2991: real time      1.2999
     EDDAV:  cpu time      1.1402: real time      1.1422
       DOS:  cpu time      0.0012: real time      0.0012
    CHARGE:  cpu time      0.1571: real time      0.1604
    MIXING:  cpu time      0.0231: real time      0.0231
    --------------------------------------------
      LOOP:  cpu time     10.4982: real time     10.5123

 eigenvalue-minimisations  :   312
 total energy-change (2. order) :-0.3333990E+00  (-0.6924241E-02)
 number of electron      42.0000004 magnetization       9.6785465
 augmentation part        1.1204270 magnetization       9.6744929

 Broyden mixing:
  rms(total) = 0.21361E+00    rms(broyden)= 0.21361E+00
  rms(prec ) = 0.21462E+00
  weight for this iteration     100.00

 eigenvalues of (default mixing * dielectric matrix)
  average eigenvalue GAMMA=   1.2288
  2.1929  1.2544  0.8293  0.6388

 Free energy of the ion-electron system (eV)
  ---------------------------------------------------
  alpha Z        PSCENC =         0.98749813
  Ewald energy   TEWEN  =      3430.62683731
  -Hartree energ DENC   =     -4965.54002006
  -exchange      EXHF   =         0.00000000
  -V(xc)+E(xc)   XCENC  =       145.52960129
  PAW double counting   =      3861.73124207    -3864.89727153
  entropy T*S    EENTRO =        -0.00000000
  eigenvalues    EBANDS =      -566.83277602
  atomic energy  EATOM  =      1890.57022460
  Solvation  Ediel_sol  =         0.00000000
  ---------------------------------------------------
  free energy    TOTEN  =       -67.82466423 eV

  energy without entropy =      -67.82466423  energy(sigma->0) =      -67.82466423


--------------------------------------------------------------------------------------------------------




--------------------------------------- Iteration      1(  10)  ---------------------------------------


    POTLOK:  cpu time      8.2267: real time      8.2351
    SETDIJ:  cpu time      1.3014: real time      1.3025
     EDDAV:  cpu time      1.0106: real time      1.0128
       DOS:  cpu time      0.0010: real time      0.0010
    CHARGE:  cpu time      0.1606: real time      0.1607
    MIXING:  cpu time      0.0247: real time      0.0247
    --------------------------------------------
      LOOP:  cpu time     10.7250: real time     10.7368

 eigenvalue-minimisations  :   264
 total energy-change (2. order) :-0.2108053E+00  (-0.1790113E-02)
 number of electron      42.0000004 magnetization       8.6913299
 augmentation part        1.1222093 magnetization       8.6892482

 Broyden mixing:
  rms(total) = 0.16750E+00    rms(broyden)= 0.16750E+00
  rms(prec ) = 0.16822E+00
  weight for this iteration     100.00

 eigenvalues of (default mixing * dielectric matrix)
  average eigenvalue GAMMA=   1.2645
  2.3025  1.6414  0.9180  0.8375  0.6233

 Free energy of the ion-electron system (eV)
  ---------------------------------------------------
  alpha Z        PSCENC =         0.98749813
  Ewald energy   TEWEN  =      3430.62683731
  -Hartree energ DENC   =     -4968.15248679
  -exchange      EXHF   =         0.00000000
  -V(xc)+E(xc)   XCENC  =       145.40729368
  PAW double counting   =      3900.67431370    -3903.78143549
  entropy T*S    EENTRO =        -0.00000000
  eigenvalues    EBANDS =      -564.36771470
  atomic energy  EATOM  =      1890.57022460
  Solvation  Ediel_sol  =         0.00000000
  ---------------------------------------------------
  free energy    TOTEN  =       -68.03546957 eV

  energy without entropy =      -68.03546957  energy(sigma->0) =      -68.03546957


--------------------------------------------------------------------------------------------------------




--------------------------------------- Iteration      1(  11)  ---------------------------------------


    POTLOK:  cpu time      7.9816: real time      7.9904
    SETDIJ:  cpu time      1.3027: real time      1.3035
     EDDAV:  cpu time      0.9292: real time      0.9303
       DOS:  cpu time      0.0012: real time      0.0012
    CHARGE:  cpu time      0.1622: real time      0.1622
    MIXING:  cpu time      0.0254: real time      0.0254
    --------------------------------------------
      LOOP:  cpu time     10.4022: real time     10.4130

 eigenvalue-minimisations  :   240
 total energy-change (2. order) :-0.2328707E+00  (-0.1464902E-02)
 number of electron      42.0000004 magnetization       7.5811441
 augmentation part        1.1225905 magnetization       7.5793333

 Broyden mixing:
  rms(total) = 0.13202E+00    rms(broyden)= 0.13202E+00
  rms(prec ) = 0.13241E+00
  weight for this iteration     100.00

 eigenvalues of (default mixing * dielectric matrix)
  average eigenvalue GAMMA=   1.3991
  2.9427  2.0420  1.2037  0.8450  0.7460  0.6154

 Free energy of the ion-electron system (eV)
  ---------------------------------------------------
  alpha Z        PSCENC =         0.98749813
  Ewald energy   TEWEN  =      3430.62683731
  -Hartree energ DENC   =     -4973.01782807
  -exchange      EXHF   =         0.00000000
  -V(xc)+E(xc)   XCENC  =       145.31980399
  PAW double counting   =      3920.08206346    -3923.14201937
  entropy T*S    EENTRO =        -0.00000000
  eigenvalues    EBANDS =      -559.69492030
  atomic energy  EATOM  =      1890.57022460
  Solvation  Ediel_sol  =         0.00000000
  ---------------------------------------------------
  free energy    TOTEN  =       -68.26834025 eV

  energy without entropy =      -68.26834025  energy(sigma->0) =      -68.26834025


--------------------------------------------------------------------------------------------------------




--------------------------------------- Iteration      1(  12)  ---------------------------------------


    POTLOK:  cpu time      8.0877: real time      8.0961
    SETDIJ:  cpu time      1.3022: real time      1.3037
     EDDAV:  cpu time      0.9949: real time      0.9961
       DOS:  cpu time      0.0014: real time      0.0014
    CHARGE:  cpu time      0.1622: real time      0.1622
    MIXING:  cpu time      0.0268: real time      0.0268
    --------------------------------------------
      LOOP:  cpu time     10.5753: real time     10.5863

 eigenvalue-minimisations  :   264
 total energy-change (2. order) :-0.1263381E+00  (-0.1416415E-02)
 number of electron      42.0000004 magnetization       5.8511368
 augmentation part        1.1219285 magnetization       5.8502330

 Broyden mixing:
  rms(total) = 0.10554E+00    rms(broyden)= 0.10554E+00
  rms(prec ) = 0.10572E+00
  weight for this iteration     100.00

 eigenvalues of (default mixing * dielectric matrix)
  average eigenvalue GAMMA=   1.5706
  4.0358  2.2003  1.5491  1.0385  0.8336  0.7233  0.6138

 Free energy of the ion-electron system (eV)
  ---------------------------------------------------
  alpha Z        PSCENC =         0.98749813
  Ewald energy   TEWEN  =      3430.62683731
  -Hartree energ DENC   =     -4977.68876624
  -exchange      EXHF   =         0.00000000
  -V(xc)+E(xc)   XCENC  =       145.30272103
  PAW double counting   =      3914.65930612    -3917.70187275
  entropy T*S    EENTRO =        -0.00000000
  eigenvalues    EBANDS =      -555.15062652
  atomic energy  EATOM  =      1890.57022460
  Solvation  Ediel_sol  =         0.00000000
  ---------------------------------------------------
  free energy    TOTEN  =       -68.39467831 eV

  energy without entropy =      -68.39467831  energy(sigma->0) =      -68.39467831


--------------------------------------------------------------------------------------------------------




--------------------------------------- Iteration      1(  13)  ---------------------------------------


    POTLOK:  cpu time      8.1684: real time      8.1770
    SETDIJ:  cpu time      1.3017: real time      1.3032
     EDDAV:  cpu time      0.9207: real time      0.9218
       DOS:  cpu time      0.0014: real time      0.0014
    CHARGE:  cpu time      0.1634: real time      0.1634
    MIXING:  cpu time      0.0276: real time      0.0276
    --------------------------------------------
      LOOP:  cpu time     10.5831: real time     10.5945

 eigenvalue-minimisations  :   240
 total energy-change (2. order) :-0.1142057E+00  (-0.1889067E-02)
 number of electron      42.0000004 magnetization       4.6276246
 augmentation part        1.1207334 magnetization       4.6277306

 Broyden mixing:
  rms(total) = 0.74549E-01    rms(broyden)= 0.74549E-01
  rms(prec ) = 0.74655E-01
  weight for this iteration     100.00

 eigenvalues of (default mixing * dielectric matrix)
  average eigenvalue GAMMA=   1.7845
  5.9630  2.4473  1.7512  1.1615  0.8243  0.8243  0.6146  0.6901

 Free energy of the ion-electron system (eV)
  ---------------------------------------------------
  alpha Z        PSCENC =         0.98749813
  Ewald energy   TEWEN  =      3430.62683731
  -Hartree energ DENC   =     -4982.45653377
  -exchange      EXHF   =         0.00000000
  -V(xc)+E(xc)   XCENC  =       145.25816639
  PAW double counting   =      3869.27545215    -3872.32826363
  entropy T*S    EENTRO =        -0.00000000
  eigenvalues    EBANDS =      -550.44226521
  atomic energy  EATOM  =      1890.57022460
  Solvation  Ediel_sol  =         0.00000000
  ---------------------------------------------------
  free energy    TOTEN  =       -68.50888402 eV

  energy without entropy =      -68.50888402  energy(sigma->0) =      -68.50888402


--------------------------------------------------------------------------------------------------------




--------------------------------------- Iteration      1(  14)  ---------------------------------------


    POTLOK:  cpu time      7.8919: real time      7.9006
    SETDIJ:  cpu time      1.3021: real time      1.3030
     EDDAV:  cpu time      1.1419: real time      1.1439
       DOS:  cpu time      0.0012: real time      0.0013
    CHARGE:  cpu time      0.1626: real time      0.1626
    MIXING:  cpu time      0.0291: real time      0.0291
    --------------------------------------------
      LOOP:  cpu time     10.5289: real time     10.5404

 eigenvalue-minimisations  :   312
 total energy-change (2. order) :-0.4402343E-01  (-0.7068455E-03)
 number of electron      42.0000004 magnetization       3.6879127
 augmentation part        1.1205112 magnetization       3.6879969

 Broyden mixing:
  rms(total) = 0.58918E-01    rms(broyden)= 0.58918E-01
  rms(prec ) = 0.59058E-01
  weight for this iteration     100.00

 eigenvalues of (default mixing * dielectric matrix)
  average eigenvalue GAMMA=   1.9213
  7.5822  2.6235  1.6205  1.6205  1.0280  0.8060  0.7519  0.6137  0.6454

 Free energy of the ion-electron system (eV)
  ---------------------------------------------------
  alpha Z        PSCENC =         0.98749813
  Ewald energy   TEWEN  =      3430.62683731
  -Hartree energ DENC   =     -4984.16326636
  -exchange      EXHF   =         0.00000000
  -V(xc)+E(xc)   XCENC  =       145.22737820
  PAW double counting   =      3846.52646530    -3849.58453687
  entropy T*S    EENTRO =        -0.00000000
  eigenvalues    EBANDS =      -548.74350776
  atomic energy  EATOM  =      1890.57022460
  Solvation  Ediel_sol  =         0.00000000
  ---------------------------------------------------
  free energy    TOTEN  =       -68.55290746 eV

  energy without entropy =      -68.55290746  energy(sigma->0) =      -68.55290746


--------------------------------------------------------------------------------------------------------




--------------------------------------- Iteration      1(  15)  ---------------------------------------


    POTLOK:  cpu time      7.9677: real time      7.9765
    SETDIJ:  cpu time      1.3019: real time      1.3026
     EDDAV:  cpu time      0.9951: real time      0.9961
       DOS:  cpu time      0.0014: real time      0.0014
    CHARGE:  cpu time      0.1619: real time      0.1619
    MIXING:  cpu time      0.0323: real time      0.0323
    --------------------------------------------
      LOOP:  cpu time     10.4602: real time     10.4708

 eigenvalue-minimisations  :   264
 total energy-change (2. order) :-0.3075452E-01  (-0.5743755E-03)
 number of electron      42.0000004 magnetization       2.5930317
 augmentation part        1.1208079 magnetization       2.5930948

 Broyden mixing:
  rms(total) = 0.46603E-01    rms(broyden)= 0.46603E-01
  rms(prec ) = 0.46737E-01
  weight for this iteration     100.00

 eigenvalues of (default mixing * dielectric matrix)
  average eigenvalue GAMMA=   2.2020
  9.9534  3.1307  2.4174  1.6060  1.2161  0.9309  0.8265  0.7066  0.6083  0.6242

 Free energy of the ion-electron system (eV)
  ---------------------------------------------------
  alpha Z        PSCENC =         0.98749813
  Ewald energy   TEWEN  =      3430.62683731
  -Hartree energ DENC   =     -4984.22523234
  -exchange      EXHF   =         0.00000000
  -V(xc)+E(xc)   XCENC  =       145.19187100
  PAW double counting   =      3852.77996291    -3855.83790879
  entropy T*S    EENTRO =        -0.00000000
  eigenvalues    EBANDS =      -548.67691480
  atomic energy  EATOM  =      1890.57022460
  Solvation  Ediel_sol  =         0.00000000
  ---------------------------------------------------
  free energy    TOTEN  =       -68.58366197 eV

  energy without entropy =      -68.58366197  energy(sigma->0) =      -68.58366197


--------------------------------------------------------------------------------------------------------




--------------------------------------- Iteration      1(  16)  ---------------------------------------


    POTLOK:  cpu time      7.7858: real time      7.7944
    SETDIJ:  cpu time      1.3032: real time      1.3046
     EDDAV:  cpu time      1.1484: real time      1.1496
       DOS:  cpu time      0.0011: real time      0.0011
    CHARGE:  cpu time      0.1613: real time      0.1613
    MIXING:  cpu time      0.0329: real time      0.0329
    --------------------------------------------
      LOOP:  cpu time     10.4326: real time     10.4438

 eigenvalue-minimisations  :   312
 total energy-change (2. order) :-0.2437644E-01  (-0.3878203E-03)
 number of electron      42.0000004 magnetization       1.9802187
 augmentation part        1.1211049 magnetization       1.9801880

 Broyden mixing:
  rms(total) = 0.34531E-01    rms(broyden)= 0.34531E-01
  rms(prec ) = 0.34641E-01
  weight for this iteration     100.00

 eigenvalues of (default mixing * dielectric matrix)
  average eigenvalue GAMMA=   2.2622
 11.1890  3.6234  2.4466  1.4513  1.4513  1.0881  0.8817  0.8313  0.6926  0.6147
  0.6147

 Free energy of the ion-electron system (eV)
  ---------------------------------------------------
  alpha Z        PSCENC =         0.98749813
  Ewald energy   TEWEN  =      3430.62683731
  -Hartree energ DENC   =     -4983.72171049
  -exchange      EXHF   =         0.00000000
  -V(xc)+E(xc)   XCENC  =       145.15513027
  PAW double counting   =      3876.66828166    -3879.72636086
  entropy T*S    EENTRO =        -0.00000000
  eigenvalues    EBANDS =      -549.16793903
  atomic energy  EATOM  =      1890.57022460
  Solvation  Ediel_sol  =         0.00000000
  ---------------------------------------------------
  free energy    TOTEN  =       -68.60803841 eV

  energy without entropy =      -68.60803841  energy(sigma->0) =      -68.60803841


--------------------------------------------------------------------------------------------------------




--------------------------------------- Iteration      1(  17)  ---------------------------------------


    POTLOK:  cpu time      7.8563: real time      7.8653
    SETDIJ:  cpu time      1.3223: real time      1.3232
     EDDAV:  cpu time      1.1462: real time      1.1480
       DOS:  cpu time      0.0012: real time      0.0012
    CHARGE:  cpu time      0.1632: real time      0.1632
    MIXING:  cpu time      0.0342: real time      0.0342
    --------------------------------------------
      LOOP:  cpu time     10.5234: real time     10.5350

 eigenvalue-minimisations  :   288
 total energy-change (2. order) :-0.8155210E-02  (-0.1098631E-03)
 number of electron      42.0000004 magnetization       1.1814295
 augmentation part        1.1208405 magnetization       1.1813115

 Broyden mixing:
  rms(total) = 0.27686E-01    rms(broyden)= 0.27686E-01
  rms(prec ) = 0.27767E-01
  weight for this iteration     100.00

 eigenvalues of (default mixing * dielectric matrix)
  average eigenvalue GAMMA=   2.3895
 12.4323  4.2798  2.4786  2.0343  1.6724  1.2294  0.9875  0.8357  0.8069  0.6867
  0.6155  0.6155

 Free energy of the ion-electron system (eV)
  ---------------------------------------------------
  alpha Z        PSCENC =         0.98749813
  Ewald energy   TEWEN  =      3430.62683731
  -Hartree energ DENC   =     -4983.08208064
  -exchange      EXHF   =         0.00000000
  -V(xc)+E(xc)   XCENC  =       145.12842370
  PAW double counting   =      3879.45499107    -3882.51268031
  entropy T*S    EENTRO =        -0.00000000
  eigenvalues    EBANDS =      -549.78940750
  atomic energy  EATOM  =      1890.57022460
  Solvation  Ediel_sol  =         0.00000000
  ---------------------------------------------------
  free energy    TOTEN  =       -68.61619362 eV

  energy without entropy =      -68.61619362  energy(sigma->0) =      -68.61619362


--------------------------------------------------------------------------------------------------------




--------------------------------------- Iteration      1(  18)  ---------------------------------------


    POTLOK:  cpu time      8.1745: real time      8.1835
    SETDIJ:  cpu time      1.3059: real time      1.3074
     EDDAV:  cpu time      1.0703: real time      1.0717
       DOS:  cpu time      0.0012: real time      0.0012
    CHARGE:  cpu time      0.1596: real time      0.1628
    MIXING:  cpu time      0.0362: real time      0.0362
    --------------------------------------------
      LOOP:  cpu time     10.7477: real time     10.7627

 eigenvalue-minimisations  :   288
 total energy-change (2. order) :-0.4982100E-02  (-0.1852054E-03)
 number of electron      42.0000004 magnetization       0.7116695
 augmentation part        1.1202950 magnetization       0.7116199

 Broyden mixing:
  rms(total) = 0.18844E-01    rms(broyden)= 0.18844E-01
  rms(prec ) = 0.18914E-01
  weight for this iteration     100.00

 eigenvalues of (default mixing * dielectric matrix)
  average eigenvalue GAMMA=   2.5419
 14.0325  5.4987  2.8342  2.4261  1.3962  1.3962  1.0518  0.9188  0.8356  0.7420
  0.6818  0.6156  0.6156

 Free energy of the ion-electron system (eV)
  ---------------------------------------------------
  alpha Z        PSCENC =         0.98749813
  Ewald energy   TEWEN  =      3430.62683731
  -Hartree energ DENC   =     -4981.91257613
  -exchange      EXHF   =         0.00000000
  -V(xc)+E(xc)   XCENC  =       145.09910049
  PAW double counting   =      3879.85922334    -3882.91450391
  entropy T*S    EENTRO =        -0.00000000
  eigenvalues    EBANDS =      -550.93697956
  atomic energy  EATOM  =      1890.57022460
  Solvation  Ediel_sol  =         0.00000000
  ---------------------------------------------------
  free energy    TOTEN  =       -68.62117572 eV

  energy without entropy =      -68.62117572  energy(sigma->0) =      -68.62117572


--------------------------------------------------------------------------------------------------------




--------------------------------------- Iteration      1(  19)  ---------------------------------------


    POTLOK:  cpu time      7.8647: real time      7.8733
    SETDIJ:  cpu time      1.3051: real time      1.3059
     EDDAV:  cpu time      1.0685: real time      1.0696
       DOS:  cpu time      0.0012: real time      0.0012
    CHARGE:  cpu time      0.1619: real time      0.1628
    MIXING:  cpu time      0.0372: real time      0.0372
    --------------------------------------------
      LOOP:  cpu time     10.4384: real time     10.4500

 eigenvalue-minimisations  :   288
 total energy-change (2. order) :-0.1229230E-02  (-0.4826006E-04)
 number of electron      42.0000004 magnetization       0.3773583
 augmentation part        1.1204561 magnetization       0.3773148

 Broyden mixing:
  rms(total) = 0.13535E-01    rms(broyden)= 0.13535E-01
  rms(prec ) = 0.13614E-01
  weight for this iteration     100.00

 eigenvalues of (default mixing * dielectric matrix)
  average eigenvalue GAMMA=   2.6758
 15.6405  6.6349  3.0847  2.4077  1.5354  1.5354  1.3477  1.0073  0.8370  0.8370
  0.7004  0.6146  0.6146  0.6637

 Free energy of the ion-electron system (eV)
  ---------------------------------------------------
  alpha Z        PSCENC =         0.98749813
  Ewald energy   TEWEN  =      3430.62683731
  -Hartree energ DENC   =     -4981.21511367
  -exchange      EXHF   =         0.00000000
  -V(xc)+E(xc)   XCENC  =       145.08736333
  PAW double counting   =      3877.35301018    -3880.40700589
  entropy T*S    EENTRO =        -0.00000000
  eigenvalues    EBANDS =      -551.62521895
  atomic energy  EATOM  =      1890.57022460
  Solvation  Ediel_sol  =         0.00000000
  ---------------------------------------------------
  free energy    TOTEN  =       -68.62240495 eV

  energy without entropy =      -68.62240495  energy(sigma->0) =      -68.62240495


--------------------------------------------------------------------------------------------------------




--------------------------------------- Iteration      1(  20)  ---------------------------------------


    POTLOK:  cpu time      7.7666: real time      7.7746
    SETDIJ:  cpu time      1.3052: real time      1.3067
     EDDAV:  cpu time      0.9252: real time      0.9262
       DOS:  cpu time      0.0011: real time      0.0011
    CHARGE:  cpu time      0.1625: real time      0.1625
    MIXING:  cpu time      0.0394: real time      0.0394
    --------------------------------------------
      LOOP:  cpu time     10.2000: real time     10.2106

 eigenvalue-minimisations  :   240
 total energy-change (2. order) : 0.2514236E-03  (-0.3841978E-04)
 number of electron      42.0000004 magnetization       0.1965774
 augmentation part        1.1208347 magnetization       0.1965565

 Broyden mixing:
  rms(total) = 0.89189E-02    rms(broyden)= 0.89183E-02
  rms(prec ) = 0.89926E-02
  weight for this iteration     100.00

 eigenvalues of (default mixing * dielectric matrix)
  average eigenvalue GAMMA=   2.8284
 17.7326  7.7859  3.4151  2.4362  1.9857  1.4618  1.4618  1.0197  0.9660  0.8301
  0.7887  0.6911  0.6320  0.6046  0.6146

[...]
  248        set_dd_paw                            1.299507                            1   3
  249          set_rsgf_all                          0.000002                          1   4
  250          m_sumb_d                              1.299358                          7   4
  251        strkin                                0.001797                            1   3
  252          m_sumb_d                              0.000843                          1   4
  253        strelo                                0.017560                            1   3
  254          m_sumb_d                              0.000127                          2   4
  255        strnlr                                0.666224                            1   3
  256          rspher_all                            0.025429                          9   4
  257          phaser                                0.000006                          9   4
  258          rpro_isp                              0.634733                          9   4
  259            fftwav_mpi                            0.623145                       36   5
  260              fft3d_mpi                             0.540659                     36   6
  261                fftbrc_mpi                            0.445728                   36   7
  262                  fftbas_plan_mpi                       0.445542                 36   8
  263                    dfftw_execute                         0.227779              108   9
  264                    map_forward                           0.195226               72   9
  265                      map_gather                            0.044023             36  10
  266                      m_alltoallv_z                         0.031855             36  10
  267                      map_scatter                           0.054055             36  10
  268            rpromu                                0.010962                       18   5
  269              rpromu_gemm                           0.001925                    234   6
  270              m_sumb_d                              0.005090                     36   6
  271          m_sumb_d                              0.005530                          1   4
  272        m_sumb_d                              0.424287                            7   3
  273        fft3d_mpi                             1.009409                           82   3
  274          fftbrc_mpi                            0.965913                         82   4
  275            fftbas_plan_mpi                       0.965488                       82   5
  276              dfftw_execute                         0.216394                    246   6
  277              map_forward                           0.361908                     80   6
  278                map_gather                            0.038945                   40   7
  279                m_alltoallv_z                         0.294245                   40   7
  280                map_scatter                           0.028010                   40   7
  281              map_backward                          0.334980                     84   6
  282                map_gather                            0.022812                   42   7
  283                m_alltoallv_z                         0.248800                   42   7
  284                map_scatter                           0.062549                   42   7
  285        forhar                                0.092097                            2   3
  286          m_sumb_d                              0.000551                          2   4
  287        strehar                               0.017134                            1   3
  288          m_sumb_d                              0.000397                          1   4
  289        chggra                                0.044481                            1   3
  290          fft3d_mpi                             0.030816                          3   4
  291            fftbrc_mpi                            0.029368                        3   5
  292              fftbas_plan_mpi                       0.029360                      3   6
  293                dfftw_execute                         0.008136                    9   7
  294                map_backward                          0.006264                    2   7
  295                  map_gather                            0.000502                  1   8
  296                  m_alltoallv_z                         0.004563                  1   8
  297                  map_scatter                           0.001176                  1   8
  298                map_forward                           0.012884                    4   7
  299                  map_gather                            0.002078                  2   8
  300                  m_alltoallv_z                         0.009401                  2   8
  301                  map_scatter                           0.001366                  2   8
  302          m_sumb_d                              0.000168                          2   4
  303          pothar                                0.003421                          1   4
  304            m_sumb_d                              0.001344                        1   5
  305        brmix                                 0.075245                            1   3
  306          m_sumb_d                              0.000500                          6   4
  307          brpre                                 0.000377                          2   4
  308          setg0                                 0.006534                          1   4
  309          broyd                                 0.058096                          1   4
  310            m_sumb_d                              0.003992                       36   5
  311            brget                                 0.011237                      183   5
  312            brsav                                 0.002531                       34   5
  313        m_bcast_d                             0.001082                            2   3
  314      potlok                                7.762532                              1   2
  315        fft3d_mpi                             1.005498                           86   3
  316          fftbrc_mpi                            0.956773                         86   4
  317            fftbas_plan_mpi                       0.956526                       86   5
  318              dfftw_execute                         0.230926                    258   6
  319              map_forward                           0.376651                     88   6
  320                map_gather                            0.041217                   46   7
  321                m_alltoallv_z                         0.302884                   46   7
  322                map_scatter                           0.031611                   46   7
  323              map_backward                          0.293725                     84   6
  324                map_gather                            0.023958                   42   7
  325                m_alltoallv_z                         0.205741                   42   7
  326                map_scatter                           0.063274                   42   7
  327        m_sumb_d                              0.245100                            6   3
  328        pothar                                0.002110                            1   3
  329          m_sumb_d                              0.000076                          1   4
  330        m_bcast_d                             0.008479                            2   3
  331      potlok_metagga                        0.000001                              1   2
  332      set_dd_magatom                        0.000000                              1   2
  333      set_dd_paw                            1.298689                              1   2
  334        set_rsgf_all                          0.000002                            1   3
  335        m_sumb_d                              1.298559                            7   3
  336      m_bcast_d                             0.000133                              2   2
  337      densta                                0.000559                              1   2
  338        m_sumb_d                              0.000488                            7   3
 
 Flat profile
 ============
 
             routine name                   CPU           calls
 ---------------------------------------------------------------
 potlok                                207.142188          31
 m_sumb_d                               56.616464        5725
 total_time                             19.651574           1
 m_alltoallv_z                          16.802866        4518
 dfftw_execute                          16.662082       13188
 force_and_stress                        6.659739           1
 fft3d_mpi                               5.586414        4396
 map_scatter                             5.377076        4518
 map_gather                              4.301462        4518
 m_alltoall_d                            4.180220        3768
 fftbas_plan_mpi                         2.781926        4396
 fftwav_mpi                              2.725910        1008
 map_forward                             1.913227        4830
 vhamil                                  1.813426         516
 lapack                                  1.626827         516
 orth1                                   1.265342        1552
 eddav                                   0.765235          34
 soft_charge                             0.720148          30
 broyd                                   0.478173          30
 ggemm                                   0.457545         652
 m_bcast_d                               0.382303        1614
 redis_pw                                0.346385        1552
 m_bcast_z                               0.345270         100
 brmix                                   0.295753          30
 eccp                                    0.293004         136
 w1_copy                                 0.264376        1548
 elmin                                   0.233772           1
 fftext_mpi                              0.218980         516
 setg0                                   0.198225          32
 setdij_                                 0.195509          58
 augmentation_charge                     0.171273          30
 brget                                   0.153775        2703
 pw_charge                               0.139426          60
 kinhamil                                0.123923         516
 racc0                                   0.101165         516
 lincom                                  0.097102          70
 forhar                                  0.091546           2
 apply_precond                           0.072860         380
 rpro1                                   0.070557         380
 pothar                                  0.065629          32
 brsav                                   0.059679         590
 forloc                                  0.054235           1
 setup_precond                           0.051282         136
 fft_gq                                  0.050912          30
 inisym                                  0.044853           1
 map_backward                            0.039694        3962
 rspher_all                              0.037853          14
 set_charge                              0.033685          30
 stufak                                  0.033621           1
 set_dd_paw                              0.033424          32
 redis_proj                              0.031441        1934
 choleski                                0.019241           2
 strelo                                  0.017433           1
 overl                                   0.017217         898
 strehar                                 0.016737           1
 fftbrc_mpi                              0.013926        4396
 rpromu_gemm                             0.012177         338
 brpre                                   0.011812          60
 rpro_isp                                0.010648          13
 overl1                                  0.010083         516
 chggra                                  0.010076           1
 hamiltmu                                0.008778         516
 newband                                 0.007995         584
 rpromu                                  0.006459          26
 raccmu_                                 0.005666         516
 fewald                                  0.005056           1
 densta                                  0.003598          35
 w1_projall                              0.001685         380
 brgrid                                  0.001483           1
 depsum                                  0.001311          30
 rsp                                     0.001105           1
 strkin                                  0.000954           1
 truncate_high_frequency_w1              0.000628         652
 strnlr                                  0.000525           1
 orthch                                  0.000258           1
 fordep                                  0.000245           1
 crpa_reader                             0.000242           1
 fornlr                                  0.000153           1
 rcp                                     0.000111           1
 set_rsgf_all                            0.000087          32
 phaser                                  0.000052          81
 vectorpot                               0.000046          31
 potlok_metagga                          0.000041          31
 set_dd_magatom                          0.000038          32
 rotate_active_occupied_orbital          0.000026           1
 posmap                                  0.000025           2
 proall                                  0.000021           1
 redis_pw_over_bands                     0.000001           1
 ---------------------------------------------------------------
  summed up times    362.045295953751     
 
 Accumulative profile
 ====================
 
             routine name                   CPU           calls
 ---------------------------------------------------------------
 total_time                            362.045296           1
 elmin                                 321.762061           1
 potlok                                249.188200          31
 m_sumb_d                               56.616464        5725
 fft3d_mpi                              53.478671        4396
 fftbrc_mpi                             47.892257        4396
 fftbas_plan_mpi                        47.878331        4396
 set_dd_paw                             41.673880          32
 eddav                                  34.899423          34
 fftwav_mpi                             17.931405        1008
 m_alltoallv_z                          16.802866        4518
 dfftw_execute                          16.662082       13188
 map_forward                            16.386000        4830
 map_backward                           12.048323        3962
 force_and_stress                       10.887742           1
 hamiltmu                                8.552536         516
 kinhamil                                6.502146         516
 fftext_mpi                              6.378223         516
 map_scatter                             5.377076        4518
 set_charge                              4.923223          30
 map_gather                              4.301462        4518
 m_alltoall_d                            4.180220        3768
 soft_charge                             4.055028          30
 redis_pw                                3.415856        1552
 newband                                 3.230862         584
 vhamil                                  1.813426         516
 lapack                                  1.626827         516
 brmix                                   1.296863          30
 orth1                                   1.265342        1552
 redis_proj                              1.142190        1934
 rpro_isp                                0.974816          13
 augmentation_charge                     0.818286          30
 broyd                                   0.771746          30
 strnlr                                  0.666224           1
 fft_gq                                  0.612459          30
 ggemm                                   0.457545         652
 m_bcast_d                               0.382303        1614
 m_bcast_z                               0.345270         100
 eccp                                    0.318407         136
 w1_copy                                 0.264376        1548
 setdij_                                 0.244891          58
 fornlr                                  0.240156           1
 raccmu_                                 0.228185         516
 racc0                                   0.212436         516
 setg0                                   0.198225          32
 w1_projall                              0.155727         380
 rpro1                                   0.154042         380
 brget                                   0.153775        2703
 pw_charge                               0.139426          60
 proall                                  0.110989           1
 lincom                                  0.097102          70
 pothar                                  0.096626          32
 forhar                                  0.092097           2
 orthch                                  0.079152           1
 apply_precond                           0.072860         380
 brsav                                   0.059679         590
 setup_precond                           0.056860         136
 forloc                                  0.055886           1
 inisym                                  0.044878           1
 chggra                                  0.044481           1
 rspher_all                              0.037853          14
 stufak                                  0.033621           1
 rpromu                                  0.024381          26
 fordep                                  0.022189           1
 densta                                  0.022000          35
 choleski                                0.019241           2
 strelo                                  0.017560           1
 overl                                   0.017217         898
 strehar                                 0.017134           1
 depsum                                  0.016223          30
 rpromu_gemm                             0.012177         338
 brpre                                   0.011812          60
 overl1                                  0.010083         516
 fewald                                  0.006990           1
 strkin                                  0.001797           1
 brgrid                                  0.001483           1
 rsp                                     0.001105           1
 truncate_high_frequency_w1              0.000628         652
 crpa_reader                             0.000242           1
 rcp                                     0.000111           1
 set_rsgf_all                            0.000087          32
 phaser                                  0.000052          81
 vectorpot                               0.000046          31
 potlok_metagga                          0.000041          31
 set_dd_magatom                          0.000038          32
 rotate_active_occupied_orbital          0.000026           1
 posmap                                  0.000025           2
 redis_pw_over_bands                     0.000001           1
 ---------------------------------------------------------------
 
Profiling took   0.119860  0.040784  0.007068  0.006447 seconds
Profiling took   0.146184 seconds
