 vasp.6.3.2 27Jun22 (build Jan 03 2024 23:05:41) complex                        
  
 executed on           IFC15_impi date 2024.07.31  08:00:02
 running  512 mpi-ranks, with    1 threads/rank
 distrk:  each k-point on   64 cores,    8 groups
 distr:  one band on NCORE=  16 cores,    4 groups


--------------------------------------------------------------------------------------------------------


 INCAR:
   ENCUT = 600.00
   EDIFF = 1.00e-06
   IBRION = -1
   NSW = 0
   ALGO = Normal
   ISMEAR = -5
   LORBIT = 11
   LCHARG = .TRUE.
   LWAVE = .FALSE.
   LREAL = Auto
   NELM = 2000
   NCORE = 16
   KPAR = 8
   ISPIN = 2
   GGA = MK
   PARAM1 = 0.1234
   PARAM2 = 1.0
   AGGAC = 0.0
   LUSE_VDW = .TRUE.
   LASPH = .TRUE.
   LDIPOL = .TRUE.
   DIPOL = 0.5 0.5 0.5
   IDIPOL = 3

 POTCAR:    PAW_PBE Mo_sv 02Feb2006               
 POTCAR:    PAW_PBE S 06Sep2000                   
 -----------------------------------------------------------------------------
|                                                                             |
|           W    W    AA    RRRRR   N    N  II  N    N   GGGG   !!!           |
|           W    W   A  A   R    R  NN   N  II  NN   N  G    G  !!!           |
|           W    W  A    A  R    R  N N  N  II  N N  N  G       !!!           |
|           W WW W  AAAAAA  RRRRR   N  N N  II  N  N N  G  GGG   !            |
|           WW  WW  A    A  R   R   N   NN  II  N   NN  G    G                |
|           W    W  A    A  R    R  N    N  II  N    N   GGGG   !!!           |
|                                                                             |
|     You use a magnetic or noncollinear calculation, but did not specify     |
|     the initial magnetic moment with the MAGMOM tag. Note that a            |
|     default of 1 will be used for all atoms. This ferromagnetic setup       |
|     may break the symmetry of the crystal, in particular it may rule        |
|     out finding an antiferromagnetic solution. Thence, we recommend         |
|     setting the initial magnetic moment manually or verifying carefully     |
|     that this magnetic setup is desired.                                    |
|                                                                             |
 -----------------------------------------------------------------------------

 -----------------------------------------------------------------------------
|                                                                             |
|               ----> ADVICE to this user running VASP <----                  |
|                                                                             |
|     You have switched on vdW-DFT.                                           |
|     This routine was written and supplied by Jiri Klimes. We recommend      |
|     that you carefully read and cite the following publications:            |
|       J. Klimes, D.R. Bowler, A. Michelides                                 |
|          J. Phys.: Cond Matt. 22 022201 (2010)                              |
|       J. Klimes, D.R. Bowler, A. Michelides                                 |
|          Phys. Rev. B. 83, 195131 (2011)                                    |
|     and references therein.                                                 |
|                                                                             |
 -----------------------------------------------------------------------------

 POTCAR:    PAW_PBE Mo_sv 02Feb2006               
   SHA256 =  2731df97e41766cc617548c5a8267718fdef1f509ac6bafa01e745abea2bdfaa Mo_sv/POTCAR          
   COPYR  = (c) Copyright 02Feb2006 Georg Kresse                                                    
   COPYR  = This file is part of the software VASP. Any use, copying, and all other rights are regul
   COPYR  = If you do not have a valid VASP license, you may not use, copy or distribute this file. 
   VRHFIN =Mo: 4p5s4d                                                                               
   LEXCH  = PE                                                                                      
   EATOM  =  1862.2866 eV,  136.8742 Ry                                                             
                                                                                                    
   TITEL  = PAW_PBE Mo_sv 02Feb2006                                                                 
   LULTRA =        F    use ultrasoft PP ?                                                          
   IUNSCR =        1    unscreen: 0-lin 1-nonlin 2-no                                               
   RPACOR =    2.200    partial core radius                                                         
   POMASS =   95.940; ZVAL   =   14.000    mass and valenz                                          
   RCORE  =    2.500    outmost cutoff radius                                                       
   RWIGS  =    2.750; RWIGS  =    1.455    wigner-seitz radius (au A)                               
   ENMAX  =  242.676; ENMIN  =  182.007 eV                                                          
   ICORE  =        3    local potential                                                             
   LCOR   =        T    correct aug charges                                                         
   LPAW   =        T    paw PP                                                                      
   EAUG   =  446.014                                                                                
   DEXC   =    0.000                                                                                
   RMAX   =    2.563    core radius for proj-oper                                                   
   RAUG   =    1.300    factor for augmentation sphere                                              
   RDEP   =    2.641    radius for radial grids                                                     
   RDEPT  =    2.031    core radius for aug-charge                                                  
                                                                                                    
   Atomic configuration                                                                             
   11 entries                                                                                       
     n  l   j            E        occ.                                                              
     1  0  0.50    -19819.0341   2.0000                                                             
     2  0  0.50     -2799.0127   2.0000                                                             
     2  1  1.50     -2502.0276   6.0000                                                             
     3  0  0.50      -476.4449   2.0000                                                             
     3  1  1.50      -379.1496   6.0000                                                             
     3  2  2.50      -220.9367  10.0000                                                             
     4  0  0.50       -64.3378   2.0000                                                             
     5  0  0.50        -4.0862   1.0000                                                             
     4  1  1.50       -38.4773   6.0000                                                             
     4  2  2.50        -3.7535   5.0000                                                             
     4  3  2.50        -1.3606   0.0000                                                             
   Description                                                                                      
     l       E           TYP  RCUT    TYP  RCUT                                                     
     0    -64.3377829     23  2.100                                                                 
     0     -4.0861640     23  2.400                                                                 
     1    -38.4772993     23  2.100                                                                 
     1     13.6058260     23  2.100                                                                 
     2     -3.7534941     23  2.400                                                                 
     2     -5.1140767     23  2.400                                                                 
     3     -4.0817478     23  2.500                                                                 
  local pseudopotential read in
  partial core-charges read in
  partial kinetic energy density read in
  atomic valenz-charges read in
  non local Contribution for L=           0  read in
    real space projection operators read in
  non local Contribution for L=           0  read in
    real space projection operators read in
  non local Contribution for L=           1  read in
    real space projection operators read in
  non local Contribution for L=           1  read in
    real space projection operators read in
  non local Contribution for L=           2  read in
    real space projection operators read in
  non local Contribution for L=           2  read in
    real space projection operators read in
    PAW grid and wavefunctions read in
 
   number of l-projection  operators is LMAX  =           6
   number of lm-projection operators is LMMAX =          18
 
 POTCAR:    PAW_PBE S 06Sep2000                   
   SHA256 =  0fc7481fb0695f01bdc6462160264c5c84044ae9ec85a907d398b887a2bc3132 S/POTCAR              
   COPYR  = (c) Copyright 06Sep2000 Georg Kresse                                                    
   COPYR  = This file is part of the software VASP. Any use, copying, and all other rights are regul
   COPYR  = If you do not have a valid VASP license, you may not use, copy or distribute this file. 
   VRHFIN =S : s2p4                                                                                 
   LEXCH  = PE                                                                                      
   EATOM  =   276.8230 eV,   20.3459 Ry                                                             
                                                                                                    
   TITEL  = PAW_PBE S 06Sep2000                                                                     
   LULTRA =        F    use ultrasoft PP ?                                                          
   IUNSCR =        1    unscreen: 0-lin 1-nonlin 2-no                                               
   RPACOR =    1.500    partial core radius                                                         
   POMASS =   32.066; ZVAL   =    6.000    mass and valenz                                          
   RCORE  =    1.900    outmost cutoff radius                                                       
   RWIGS  =    2.200; RWIGS  =    1.164    wigner-seitz radius (au A)                               
   ENMAX  =  258.689; ENMIN  =  194.016 eV                                                          
   ICORE  =        2    local potential                                                             
   LCOR   =        T    correct aug charges                                                         
   LPAW   =        T    paw PP                                                                      
   EAUG   =  335.092                                                                                
   DEXC   =    0.000                                                                                
   RMAX   =    1.942    core radius for proj-oper                                                   
   RAUG   =    1.300    factor for augmentation sphere                                              
   RDEP   =    1.954    radius for radial grids                                                     
   RDEPT  =    1.744    core radius for aug-charge                                                  
                                                                                                    
   Atomic configuration                                                                             
    6 entries                                                                                       
     n  l   j            E        occ.                                                              
     1  0  0.50     -2405.8406   2.0000                                                             
     2  0  0.50      -211.7007   2.0000                                                             
     2  1  1.50      -156.4958   6.0000                                                             
     3  0  0.50       -17.2562   2.0000                                                             
     3  1  0.50        -7.0085   4.0000                                                             
     3  2  1.50        -6.8029   0.0000                                                             
   Description                                                                                      
     l       E           TYP  RCUT    TYP  RCUT                                                     
     0    -17.2561641     23  1.900                                                                 
     0    -15.8743224     23  1.900                                                                 
     1     -7.0085400     23  1.900                                                                 
     1     -2.7779785     23  1.900                                                                 
     2     -6.8029130     23  1.900                                                                 
  local pseudopotential read in
  partial core-charges read in
  partial kinetic energy density read in
  atomic valenz-charges read in
  non local Contribution for L=           0  read in
    real space projection operators read in
  non local Contribution for L=           0  read in
    real space projection operators read in
  non local Contribution for L=           1  read in
    real space projection operators read in
  non local Contribution for L=           1  read in
    real space projection operators read in
    PAW grid and wavefunctions read in
 
   number of l-projection  operators is LMAX  =           4
   number of lm-projection operators is LMMAX =           8
 
 Optimization of the real space projectors (new method)

 maximal supplied QI-value         = 15.12
 optimisation between [QCUT,QGAM] = [ 12.55, 25.10] = [ 44.09,176.36] Ry 
 Optimized for a Real-space Cutoff    1.47 Angstroem

   l    n(q)    QCUT    max X(q) W(low)/X(q) W(high)/X(q)  e(spline) 
   0     11    12.548     3.559    0.18E-04    0.60E-05    0.19E-06
   0     11    12.548    20.730    0.37E-04    0.13E-04    0.98E-07
   1     11    12.548     3.279    0.80E-06    0.70E-06    0.27E-07
   1     11    12.548     4.693    0.72E-04    0.11E-03    0.38E-06
   2     10    12.548    67.616    0.34E-03    0.45E-03    0.54E-06
   2     10    12.548    62.420    0.34E-03    0.45E-03    0.54E-06
 Optimization of the real space projectors (new method)

 maximal supplied QI-value         = 19.84
 optimisation between [QCUT,QGAM] = [ 12.50, 25.00] = [ 43.76,175.03] Ry 
 Optimized for a Real-space Cutoff    1.06 Angstroem

   l    n(q)    QCUT    max X(q) W(low)/X(q) W(high)/X(q)  e(spline) 
   0      8    12.501   187.594    0.26E-03    0.17E-03    0.97E-07
   0      8    12.501   164.243    0.26E-03    0.17E-03    0.96E-07
   1      7    12.501    67.533    0.50E-03    0.61E-03    0.91E-07
   1      7    12.501    50.729    0.48E-03    0.60E-03    0.90E-07
 -----------------------------------------------------------------------------
|                                                                             |
|               ----> ADVICE to this user running VASP <----                  |
|                                                                             |
|     You enforced a specific xc type in the INCAR file but a different       |
|     type was found in the POTCAR file.                                      |
|     I HOPE YOU KNOW WHAT YOU ARE DOING!                                     |
|                                                                             |
 -----------------------------------------------------------------------------

  PAW_PBE Mo_sv 02Feb2006               :
 energy of atom  1       EATOM=-1862.2866
 kinetic energy error for atom=    0.0041 (will be added to EATOM!!)
  PAW_PBE S 06Sep2000                   :
 energy of atom  2       EATOM= -276.8230
 kinetic energy error for atom=    0.0009 (will be added to EATOM!!)
 
 
 POSCAR: Mo S
  positions in direct lattice
  velocities in cartesian coordinates
 exchange correlation table for  LEXCH =       43
   RHO(1)=    0.500       N(1)  =     2000
   RHO(2)=  100.500       N(2)  =     4000

 VTST: version 4.1, (05/19/21)

 CHAIN: initializing optimizer
 
 OPT: Using VASP Dynamics algorithm
 CHAIN: Read ICHAIN            0
 
 POSCAR: Mo S
  positions in direct lattice
  velocities in cartesian coordinates
 


--------------------------------------------------------------------------------------------------------


 ion  position               nearest neighbor table
   1  0.665  0.731  0.499-  64 2.39  40 2.39  37 2.41  65 2.41  39 2.41  36 2.42  13 3.13  14 3.13
                            11 3.16  19 3.16   3 3.19  23 3.19
   2  0.267  0.934  0.501-  49 2.41  71 2.41  48 2.41  47 2.41  70 2.41  51 2.41  25 3.17  10 3.17
                             4 3.17  18 3.17  17 3.17   8 3.17
   3  0.666  0.933  0.500-  45 2.40  66 2.41  36 2.41  37 2.41  33 2.41  32 2.41  10 3.16  23 3.17
                            11 3.17   6 3.17   9 3.18   1 3.19
   4  0.267  0.733  0.501-  69 2.41  46 2.41  71 2.41  52 2.41  70 2.41  68 2.41  10 3.17  20 3.17
                            18 3.17   2 3.17  11 3.17   5 3.17
   5  0.268  0.533  0.500-  69 2.40  68 2.41  58 2.41  57 2.41  67 2.42  60 2.43  11 3.15   7 3.16
                            22 3.17   4 3.17  20 3.18  13 3.20
   6  0.867  0.133  0.500-  35 2.41  33 2.41  29 2.41  30 2.41  32 2.41  42 2.41   9 3.17  24 3.17
                            23 3.17  16 3.17  22 3.17   3 3.17
   7  0.269  0.335  0.499-  60 2.39  50 2.39  56 2.41  67 2.41  59 2.41  55 2.42  13 3.13  15 3.13
                             5 3.16  17 3.16  22 3.19  24 3.19
   8  0.467  0.134  0.500-  49 2.40  51 2.41  73 2.41  72 2.41  62 2.42  61 2.43  17 3.15  12 3.16
                             9 3.17   2 3.17  10 3.18  15 3.20
   9  0.666  0.134  0.500-  73 2.40  72 2.41  26 2.41  28 2.41  33 2.41  32 2.41  10 3.16  16 3.17
                             8 3.17   6 3.17   3 3.18  12 3.19
  10  0.467  0.933  0.501-  71 2.41  70 2.41  45 2.41  73 2.41  66 2.41  72 2.41   3 3.16   9 3.16
                             4 3.17   2 3.17  11 3.18   8 3.18
  11  0.467  0.732  0.500-  69 2.40  68 2.41  45 2.41  66 2.41  65 2.42  64 2.43   5 3.15   1 3.16
                             3 3.17   4 3.17  10 3.18  13 3.20
  12  0.665  0.335  0.499-  61 2.39  44 2.39  28 2.41  43 2.41  62 2.41  26 2.42  15 3.13  14 3.13
                             8 3.16  21 3.16  16 3.19   9 3.19
  13  0.469  0.531  0.497-  63 2.38  67 2.39  65 2.39  60 2.40  64 2.40  14 3.06  15 3.06   7 3.13
                             1 3.13   5 3.20  11 3.20
  14  0.662  0.531  0.497-  63 2.38  39 2.39  43 2.39  40 2.40  44 2.40  13 3.06  15 3.06  12 3.13
                             1 3.13  21 3.20  19 3.20
  15  0.469  0.338  0.497-  63 2.38  59 2.39  62 2.39  50 2.40  61 2.40  13 3.06  14 3.06  12 3.13
                             7 3.13   8 3.20  17 3.20
  16  0.866  0.334  0.500-  41 2.40  38 2.41  26 2.41  28 2.41  29 2.41  42 2.41  20 3.16   9 3.17
                            21 3.17   6 3.17  22 3.18  12 3.19
  17  0.268  0.134  0.500-  49 2.40  51 2.41  54 2.41  53 2.41  59 2.42  50 2.43   8 3.15   7 3.16
                            24 3.17   2 3.17  25 3.18  15 3.20
  18  0.066  0.733  0.501-  27 2.41  46 2.41  48 2.41  47 2.41  52 2.41  31 2.41  25 3.17  20 3.17
                             4 3.17   2 3.17  19 3.17  21 3.17
  19  0.866  0.732  0.500-  27 2.40  31 2.41  74 2.41  34 2.41  39 2.42  40 2.43  21 3.15   1 3.16
                            23 3.17  18 3.17  25 3.18  14 3.20
  20  0.067  0.533  0.501-  46 2.41  52 2.41  58 2.41  41 2.41  57 2.41  38 2.41  22 3.16  16 3.16
                             4 3.17  18 3.17   5 3.18  21 3.18
  21  0.866  0.533  0.500-  27 2.40  31 2.41  41 2.41  38 2.41  43 2.42  44 2.43  19 3.15  12 3.16
                            16 3.17  18 3.17  20 3.18  14 3.20
  22  0.067  0.334  0.500-  58 2.40  57 2.41  55 2.41  56 2.41  29 2.41  42 2.41  20 3.16  24 3.17
                             5 3.17   6 3.17  16 3.18   7 3.19
  23  0.866  0.933  0.500-  74 2.40  34 2.41  36 2.41  37 2.41  35 2.41  30 2.41  25 3.16   3 3.17
                            19 3.17   6 3.17  24 3.18   1 3.19
  24  0.067  0.134  0.500-  54 2.40  53 2.41  55 2.41  56 2.41  35 2.41  30 2.41  25 3.16  22 3.17
                            17 3.17   6 3.17  23 3.18   7 3.19
  25  0.067  0.933  0.501-  48 2.41  47 2.41  54 2.41  74 2.41  34 2.41  53 2.41  23 3.16  24 3.16
                             2 3.17  18 3.17  17 3.18  19 3.18
  26  0.732  0.268  0.567-  16 2.41   9 2.41  12 2.42
  27  0.934  0.667  0.433-  21 2.40  19 2.40  18 2.41
  28  0.733  0.267  0.432-  16 2.41   9 2.41  12 2.41
  29  0.933  0.267  0.568-   6 2.41  16 2.41  22 2.41
  30  0.934  0.066  0.433-   6 2.41  23 2.41  24 2.41
  31  0.932  0.666  0.569-  21 2.41  19 2.41  18 2.41
  32  0.733  0.066  0.433-   6 2.41   9 2.41   3 2.41
  33  0.733  0.067  0.568-   6 2.41   9 2.41   3 2.41
  34  0.932  0.866  0.568-  23 2.41  19 2.41  25 2.41
  35  0.933  0.067  0.568-   6 2.41  24 2.41  23 2.41
  36  0.732  0.864  0.567-   3 2.41  23 2.41   1 2.42
  37  0.733  0.867  0.432-   3 2.41  23 2.41   1 2.41
  38  0.932  0.466  0.568-  16 2.41  21 2.41  20 2.41
  39  0.734  0.665  0.431-  14 2.39   1 2.41  19 2.42
  40  0.727  0.661  0.566-   1 2.39  14 2.40  19 2.43
  41  0.934  0.467  0.433-  16 2.40  20 2.41  21 2.41
  42  0.934  0.267  0.433-   6 2.41  16 2.41  22 2.41
  43  0.734  0.468  0.431-  14 2.39  12 2.41  21 2.42
  44  0.727  0.466  0.566-  12 2.39  14 2.40  21 2.43
  45  0.533  0.866  0.433-   3 2.40  10 2.41  11 2.41
  46  0.133  0.667  0.434-  20 2.41  18 2.41   4 2.41
  47  0.133  0.867  0.569-  25 2.41   2 2.41  18 2.41
  48  0.133  0.867  0.434-  25 2.41   2 2.41  18 2.41
  49  0.333  0.066  0.433-   8 2.40  17 2.40   2 2.41
  50  0.339  0.273  0.566-   7 2.39  15 2.40  17 2.43
  51  0.334  0.068  0.569-   8 2.41  17 2.41   2 2.41
  52  0.133  0.666  0.569-  20 2.41   4 2.41  18 2.41
  53  0.134  0.068  0.568-  24 2.41  17 2.41  25 2.41
  54  0.134  0.066  0.433-  24 2.40  25 2.41  17 2.41
  55  0.136  0.268  0.567-  22 2.41  24 2.41   7 2.42
  56  0.133  0.267  0.432-  22 2.41  24 2.41   7 2.41
  57  0.134  0.466  0.568-  22 2.41   5 2.41  20 2.41
  58  0.134  0.467  0.433-  22 2.40  20 2.41   5 2.41
  59  0.335  0.266  0.431-  15 2.39   7 2.41  17 2.42
  60  0.339  0.466  0.566-   7 2.39  13 2.40   5 2.43
  61  0.534  0.273  0.566-  12 2.39  15 2.40   8 2.43
  62  0.532  0.266  0.431-  15 2.39  12 2.41   8 2.42
  63  0.533  0.467  0.428-  13 2.38  14 2.38  15 2.38
  64  0.534  0.661  0.566-   1 2.39  13 2.40  11 2.43
  65  0.532  0.665  0.431-  13 2.39   1 2.41  11 2.42
  66  0.534  0.866  0.568-   3 2.41  11 2.41  10 2.41
  67  0.335  0.468  0.431-  13 2.39   7 2.41   5 2.42
  68  0.334  0.666  0.569-  11 2.41   5 2.41   4 2.41
  69  0.333  0.667  0.433-  11 2.40   5 2.40   4 2.41
  70  0.334  0.867  0.569-  10 2.41   4 2.41   2 2.41
  71  0.333  0.867  0.434-  10 2.41   2 2.41   4 2.41
  72  0.534  0.068  0.568-   9 2.41   8 2.41  10 2.41
  73  0.533  0.066  0.433-   9 2.40  10 2.41   8 2.41
  74  0.934  0.866  0.433-  23 2.40  25 2.41  19 2.41
 
  LATTYP: Found a hexagonal cell.
 ALAT       =    15.8227970706
 C/A-ratio  =     1.4623157837
  
  Lattice vectors:
  
 A1 = (   7.9113985353, -13.7029442220,   0.0000000000)
 A2 = (   7.9113985353,  13.7029442220,   0.0000000000)
 A3 = (   0.0000000000,   0.0000000000,  23.1379258980)


Analysis of symmetry for initial positions (statically):
=====================================================================
 Subroutine PRICEL returns:
 Original cell was already a primitive cell.
 

 Routine SETGRP: Setting up the symmetry group for a 
 hexagonal supercell.


 Subroutine GETGRP returns: Found  6 space group operations
 (whereof  2 operations were pure point group operations)
 out of a pool of 24 trial point group operations.


The static configuration has the point symmetry C_1h.
 The point group associated with its full space group is C_3v.


Analysis of symmetry for dynamics (positions and initial velocities):
=====================================================================
 Subroutine PRICEL returns:
 Original cell was already a primitive cell.
 

 Routine SETGRP: Setting up the symmetry group for a 
 hexagonal supercell.


 Subroutine GETGRP returns: Found  6 space group operations
 (whereof  2 operations were pure point group operations)
 out of a pool of 24 trial point group operations.


The dynamic configuration has the point symmetry C_1h.
 The point group associated with its full space group is C_3v.


Analysis of structural, dynamic, and magnetic symmetry:
=====================================================================
 Subroutine PRICEL returns:
 Original cell was already a primitive cell.
 

 Routine SETGRP: Setting up the symmetry group for a 
 hexagonal supercell.


 Subroutine GETGRP returns: Found  6 space group operations
 (whereof  2 operations were pure point group operations)
 out of a pool of 24 trial point group operations.


The overall configuration has the point symmetry C_1h.
 The point group associated with its full space group is C_3v.


 Subroutine INISYM returns: Found  6 space group operations
 (whereof  2 operations are pure point group operations),
 and found     1 'primitive' translations


----------------------------------------------------------------------------------------

                                     Primitive cell                                     

  volume of cell :    5016.7398

  direct lattice vectors                    reciprocal lattice vectors
     7.911398535-13.702944222  0.000000000     0.063199951 -0.036488509  0.000000000
     7.911398535 13.702944222  0.000000000     0.063199951  0.036488509  0.000000000
     0.000000000  0.000000000 23.137925898     0.000000000  0.000000000  0.043219086

  length of vectors
    15.822797071 15.822797071 23.137925898     0.072977017  0.072977017  0.043219086

  position of ions in fractional coordinates (direct lattice)
     0.665395419  0.730790837  0.498684328
     0.266766242  0.933532485  0.501282788
     0.666340373  0.932722690  0.500361300
     0.266766242  0.733233758  0.501282788
     0.267796652  0.533358277  0.500338916
     0.866666667  0.133333333  0.500298127
     0.269209163  0.334604581  0.498684328
     0.466641723  0.134438376  0.500338916
     0.666340373  0.133617684  0.500361300
     0.466754948  0.933377474  0.501043633
     0.466641723  0.732203348  0.500338916
     0.665395419  0.334604581  0.498684328
     0.468848764  0.531151236  0.496847736
     0.662302472  0.531151236  0.496847736
     0.468848764  0.337697528  0.496847736
     0.866382316  0.333659627  0.500361300
     0.267796652  0.134438376  0.500338916
     0.066467515  0.733233758  0.501282788
     0.865561624  0.732203348  0.500338916
     0.066622526  0.533245052  0.501043633
     0.865561624  0.533358277  0.500338916
     0.067277310  0.333659627  0.500361300
     0.866382316  0.932722690  0.500361300
     0.067277310  0.133617684  0.500361300
     0.066622526  0.933377474  0.501043633
     0.732012484  0.267987516  0.567356592
     0.933883717  0.666941858  0.433095054
     0.733293522  0.266706478  0.432284800
     0.933433648  0.266867297  0.567948124
     0.933512044  0.066487956  0.432711134
     0.931991358  0.665995679  0.568537271
     0.732975912  0.066487956  0.432711134
     0.733132703  0.066566352  0.567948124
     0.932067595  0.865588947  0.568370311
     0.933433648  0.066566352  0.567948124
     0.732012484  0.864024967  0.567356592
     0.733293522  0.866587044  0.432284800
     0.932067595  0.466478649  0.568370311
     0.733648672  0.665317701  0.430833594
     0.727477439  0.661034777  0.566417638
     0.933577291  0.467223572  0.432957933
     0.933512044  0.267024088  0.432711134
     0.733648672  0.468330971  0.430833594
     0.727477439  0.466442662  0.566417638
     0.532776428  0.866353719  0.432957933
     0.133439119  0.666878237  0.433552460
     0.133149120  0.866850880  0.569018344
     0.133439119  0.866560881  0.433552460
     0.333058142  0.066116283  0.433095054
     0.338965223  0.272522561  0.566417638
     0.334004321  0.068008642  0.568537271
     0.133149120  0.666298239  0.569018344
     0.134411053  0.067932405  0.568370311
     0.133646281  0.066422709  0.432957933
     0.135975033  0.267987516  0.567356592
     0.133412956  0.266706478  0.432284800
     0.134411053  0.466478649  0.568370311
     0.133646281  0.467223572  0.432957933
     0.334682299  0.266351328  0.430833594
     0.338965223  0.466442662  0.566417638
     0.533557338  0.272522561  0.566417638
     0.531669029  0.266351328  0.430833594
     0.533333333  0.466666667  0.428161322
     0.533557338  0.661034777  0.566417638
     0.531669029  0.665317701  0.430833594
     0.533521351  0.865588947  0.568370311
     0.334682299  0.468330971  0.430833594
     0.334004321  0.665995679  0.568537271
     0.333058142  0.666941858  0.433095054
     0.333701761  0.866850880  0.569018344
     0.333121763  0.866560881  0.433552460
     0.533521351  0.067932405  0.568370311
     0.532776428  0.066422709  0.432957933
     0.933577291  0.866353719  0.432957933

  ion indices of the primitive-cell ions
   primitive index   ion index
                 1           1
                 2           2
                 3           3
                 4           4
                 5           5
                 6           6
                 7           7
                 8           8
                 9           9
                10          10
                11          11
                12          12
                13          13
                14          14
                15          15
                16          16
                17          17
                18          18
                19          19
                20          20
                21          21
                22          22
                23          23
                24          24
                25          25
                26          26
                27          27
                28          28
                29          29
                30          30
                31          31
                32          32
                33          33
                34          34
                35          35
                36          36
                37          37
                38          38
                39          39
                40          40
                41          41
                42          42
                43          43
                44          44
                45          45
                46          46
                47          47
                48          48
                49          49
                50          50
                51          51
                52          52
                53          53
                54          54
                55          55
                56          56
                57          57
                58          58
                59          59
                60          60
                61          61
                62          62
                63          63
                64          64
                65          65
                66          66
                67          67
                68          68
                69          69
                70          70
                71          71
                72          72
                73          73
                74          74

----------------------------------------------------------------------------------------

 
 
 KPOINTS: K-Points                                

Automatic generation of k-mesh.
 Grid dimensions read from file:
 generate k-points for:    9    9    1

 Generating k-lattice:

  Cartesian coordinates                     Fractional coordinates (reciprocal lattice)
     0.007022217 -0.004054279  0.000000000     0.111111111 -0.000000000  0.000000000
     0.007022217  0.004054279  0.000000000    -0.000000000  0.111111111  0.000000000
     0.000000000  0.000000000  0.043219086     0.000000000  0.000000000  1.000000000

  Length of vectors
     0.008108557  0.008108557  0.043219086

  Shift w.r.t. Gamma in fractional coordinates (k-lattice)
     0.000000000  0.000000000  0.000000000

 TETIRR: Found     43 inequivalent tetrahedra from      486
 
 Subroutine IBZKPT returns following result:
 ===========================================
 
 Found     12 irreducible k-points:
 
 Following reciprocal coordinates:
            Coordinates               Weight
  0.000000  0.000000  0.000000      1.000000
  0.111111 -0.000000  0.000000      6.000000
  0.222222  0.000000  0.000000      6.000000
  0.333333  0.000000  0.000000      6.000000
  0.444444  0.000000  0.000000      6.000000
  0.111111  0.111111  0.000000      6.000000
  0.222222  0.111111  0.000000     12.000000
  0.333333  0.111111  0.000000     12.000000
  0.444444  0.111111  0.000000      6.000000
  0.222222  0.222222  0.000000      6.000000
  0.333333  0.222222  0.000000     12.000000
  0.333333  0.333333  0.000000      2.000000
 
 Following cartesian coordinates:
            Coordinates               Weight
  0.000000  0.000000  0.000000      1.000000
  0.007022 -0.004054  0.000000      6.000000
  0.014044 -0.008109  0.000000      6.000000
  0.021067 -0.012163  0.000000      6.000000
  0.028089 -0.016217  0.000000      6.000000
  0.014044 -0.000000  0.000000      6.000000
  0.021067 -0.004054  0.000000     12.000000
  0.028089 -0.008109  0.000000     12.000000
  0.035111 -0.012163  0.000000      6.000000
  0.028089 -0.000000  0.000000      6.000000
  0.035111 -0.004054  0.000000     12.000000
  0.042133 -0.000000  0.000000      2.000000
 


--------------------------------------------------------------------------------------------------------




 Dimension of arrays:
   k-points           NKPTS =     12   k-points in BZ     NKDIM =     12   number of bands    NBANDS=    424
   number of dos      NEDOS =    301   number of ions     NIONS =     74
   non local maximal  LDIM  =      6   non local SUM 2l+1 LMDIM =     18
   total plane-waves  NPLWV = ******
   max r-space proj   IRMAX =   3477   max aug-charges    IRDMAX=  11445
   dimension x,y,z NGX =    96 NGY =   96 NGZ =  140
   dimension x,y,z NGXF=   192 NGYF=  192 NGZF=  280
   support grid    NGXF=   192 NGYF=  192 NGZF=  280
   ions per type =              25  49
   NGX,Y,Z   is equivalent  to a cutoff of  10.09, 10.09, 10.06 a.u.
   NGXF,Y,Z  is equivalent  to a cutoff of  20.17, 20.17, 20.12 a.u.

 SYSTEM =  unknown system                          
 POSCAR =  Mo S                                    

 Startparameter for this run:
   NWRITE =      2    write-flag & timer
   PREC   = normal    normal or accurate (medium, high low for compatibility)
   ISTART =      0    job   : 0-new  1-cont  2-samecut
   ICHARG =      2    charge: 1-file 2-atom 10-const
   ISPIN  =      2    spin polarized calculation?
   LNONCOLLINEAR =      F non collinear calculations
   LSORBIT =      F    spin-orbit coupling
   INIWAV =      1    electr: 0-lowe 1-rand  2-diag
   LASPH  =      T    aspherical Exc in radial PAW
 Electronic Relaxation 1
   ENCUT  =  600.0 eV  44.10 Ry    6.64 a.u.  31.60 31.60 46.21*2*pi/ulx,y,z
   ENINI  =  600.0     initial cutoff
   ENAUG  =  446.0 eV  augmentation charge cutoff
   NELM   =   2000;   NELMIN=  2; NELMDL=  0     # of ELM steps 
   EDIFF  = 0.1E-05   stopping-criterion for ELM
   LREAL  =      T    real-space projection
   NLSPLINE    = F    spline interpolate recip. space projectors
   LCOMPAT=      F    compatible to vasp.4.4
   GGA_COMPAT  = T    GGA compatible to vasp.4.4-vasp.4.6
   LMAXPAW     = -100 max onsite density
   LMAXMIX     =    2 max onsite mixed and CHGCAR
   VOSKOWN=      0    Vosko Wilk Nusair interpolation
   ROPT   =   -0.00050  -0.00050
 Ionic relaxation
   EDIFFG = 0.1E-04   stopping-criterion for IOM
   NSW    =      0    number of steps for IOM
   NBLOCK =      1;   KBLOCK =      1    inner block; outer block 
   IBRION =     -1    ionic relax: 0-MD 1-quasi-New 2-CG
   NFREE  =      0    steps in history (QN), initial steepest desc. (CG)
   ISIF   =      2    stress and relaxation
   IWAVPR =     10    prediction:  0-non 1-charg 2-wave 3-comb
   ISYM   =      2    0-nonsym 1-usesym 2-fastsym
   LCORR  =      T    Harris-Foulkes like correction to forces

   POTIM  = 0.5000    time-step for ionic-motion
   TEIN   =    0.0    initial temperature
   TEBEG  =    0.0;   TEEND  =   0.0 temperature during run
   SMASS  =  -3.00    Nose mass-parameter (am)
   estimated Nose-frequenzy (Omega)   =  0.10E-29 period in steps = 0.13E+47 mass=  -0.572E-26a.u.
   SCALEE = 1.0000    scale energy and forces
   NPACO  =    256;   APACO  = 10.0  distance and # of slots for P.C.
   PSTRESS=    0.0 pullay stress

  Mass of Ions in am
   POMASS =  95.94 32.07
  Ionic Valenz
   ZVAL   =  14.00  6.00
  Atomic Wigner-Seitz radii
   RWIGS  =  -1.00 -1.00
  virtual crystal weights 
   VCA    =   1.00  1.00
   NELECT =     644.0000    total number of electrons
   NUPDOWN=      -1.0000    fix difference up-down

 DOS related values:
   EMIN   =  10.00;   EMAX   =-10.00  energy-range for DOS
   EFERMI =   0.00
   ISMEAR =    -5;   SIGMA  =   0.20  broadening in eV -4-tet -1-fermi 0-gaus

 Electronic relaxation 2 (details)
   IALGO  =     38    algorithm
   LDIAG  =      T    sub-space diagonalisation (order eigenvalues)
   LSUBROT=      F    optimize rotation matrix (better conditioning)
   TURBO    =      0    0=normal 1=particle mesh
   IRESTART =      0    0=no restart 2=restart with 2 vectors
   NREBOOT  =      0    no. of reboots
   NMIN     =      0    reboot dimension
   EREF     =   0.00    reference energy to select bands
   IMIX   =      4    mixing-type and parameters
     AMIX     =   0.40;   BMIX     =  1.00
     AMIX_MAG =   1.60;   BMIX_MAG =  1.00
     AMIN     =   0.10
     WC   =   100.;   INIMIX=   1;  MIXPRE=   1;  MAXMIX= -45

 Intra band minimization:
   WEIMIN = 0.0000     energy-eigenvalue tresh-hold
   EBREAK =  0.59E-09  absolut break condition
   DEPER  =   0.30     relativ break condition  

   TIME   =   0.40     timestep for ELM

  volume/ion in A,a.u.               =      67.79       457.50
  Fermi-wavevector in a.u.,A,eV,Ry     =   0.825841  1.560613  9.279347  0.682013
  Thomas-Fermi vector in A             =   1.937769
 
 Write flags
   LWAVE        =      F    write WAVECAR
   LDOWNSAMPLE  =      F    k-point downsampling of WAVECAR
   LCHARG       =      T    write CHGCAR
   LVTOT        =      F    write LOCPOT, total local potential
   LVHAR        =      F    write LOCPOT, Hartree potential only
   LELF         =      F    write electronic localiz. function (ELF)
   LORBIT       =     11    0 simple, 1 ext, 2 COOP (PROOUT), +10 PAW based schemes


 Dipole corrections
   LMONO  =      F    monopole corrections only (constant potential shift)
   LDIPOL =      T    correct potential (dipole corrections)
   IDIPOL =      3    1-x, 2-y, 3-z, 4-all directions 
   EPSILON=  1.0000000 bulk dielectric constant

 Exchange correlation treatment:
   GGA     =    MK    GGA type
   LEXCH   =    43    internal setting for exchange type
   LIBXC   =     F    Libxc                    
   VOSKOWN =     0    Vosko Wilk Nusair interpolation
   LHFCALC =     F    Hartree Fock is set to
   LHFONE  =     F    Hartree Fock one center treatment
   AEXX    =    0.0000 exact exchange contribution

 vdW DFT:
   LUSE_VDW   =     T    switch on vdW DFT
   Zab_VDW    =-.8491    correlation parameter
   PARAM1     =0.1234
   PARAM2     =1.0000
   PARAM3     =0.0000
   -- rVV10 --
   BPARAM     = 6.3000
   CPARAM     = 0.0093

 Linear response parameters
   LEPSILON=     F    determine dielectric tensor
   LRPA    =     F    only Hartree local field effects (RPA)
   LNABLA  =     F    use nabla operator in PAW spheres
   LVEL    =     F    velocity operator in full k-point grid
   CSHIFT  =0.1000    complex shift for real part using Kramers Kronig
   OMEGAMAX=  -1.0    maximum frequency
   DEG_THRESHOLD= 0.2000000E-02 threshold for treating states as degnerate
   RTIME   =   -0.100 relaxation time in fs
  (WPLASMAI=    0.000 imaginary part of plasma frequency in eV, 0.658/RTIME)
   DFIELD  = 0.0000000 0.0000000 0.0000000 field for delta impulse in time
 
  Optional k-point grid parameters
   LKPOINTS_OPT  =     F    use optional k-point grid
   KPOINTS_OPT_MODE=     1    mode for optional k-point grid
 
 Orbital magnetization related:
   ORBITALMAG=     F  switch on orbital magnetization
   LCHIMAG   =     F  perturbation theory with respect to B field
   DQ        =  0.001000  dq finite difference perturbation B field
   LLRAUG    =     F  two centre corrections for induced B field



--------------------------------------------------------------------------------------------------------


 Static calculation
 charge density and potential will be updated during run
 spin polarized calculation
 Variant of blocked Davidson
 Davidson routine will perform the subspace rotation
 perform sub-space diagonalisation
    after iterative eigenvector-optimisation
 modified Broyden-mixing scheme, WC =      100.0
 initial mixing is a Kerker type mixing with AMIX =  0.4000 and BMIX =      1.0000
 Hartree-type preconditioning will be used
 using additional bands          102
 real space projection scheme for non local part
 use partial core corrections
 calculate Harris-corrections to forces 
   (improved forces if not selfconsistent)
 use gradient corrections 
 use of overlap-Matrix (Vanderbilt PP)
 Fermi weights with tetrahedron method with Bloechl corrections


--------------------------------------------------------------------------------------------------------


  energy-cutoff  :      600.00
  volume of cell :     5016.74
      direct lattice vectors                 reciprocal lattice vectors
     7.911398535-13.702944222  0.000000000     0.063199951 -0.036488509  0.000000000
     7.911398535 13.702944222  0.000000000     0.063199951  0.036488509  0.000000000
     0.000000000  0.000000000 23.137925898     0.000000000  0.000000000  0.043219086

  length of vectors
    15.822797071 15.822797071 23.137925898     0.072977017  0.072977017  0.043219086


 
 k-points in units of 2pi/SCALE and weight: K-Points                                
   0.00000000  0.00000000  0.00000000       0.012
   0.00702222 -0.00405428  0.00000000       0.074
   0.01404443 -0.00810856  0.00000000       0.074
   0.02106665 -0.01216284  0.00000000       0.074
   0.02808887 -0.01621711  0.00000000       0.074
   0.01404443 -0.00000000  0.00000000       0.074
   0.02106665 -0.00405428  0.00000000       0.148
   0.02808887 -0.00810856  0.00000000       0.148
   0.03511108 -0.01216284  0.00000000       0.074
   0.02808887 -0.00000000  0.00000000       0.074
   0.03511108 -0.00405428  0.00000000       0.148
   0.04213330 -0.00000000  0.00000000       0.025
 
 k-points in reciprocal lattice and weights: K-Points                                
   0.00000000  0.00000000  0.00000000       0.012
   0.11111111 -0.00000000  0.00000000       0.074
   0.22222222  0.00000000  0.00000000       0.074
   0.33333333  0.00000000  0.00000000       0.074
   0.44444444  0.00000000  0.00000000       0.074
   0.11111111  0.11111111  0.00000000       0.074
   0.22222222  0.11111111  0.00000000       0.148
   0.33333333  0.11111111  0.00000000       0.148
   0.44444444  0.11111111  0.00000000       0.074
   0.22222222  0.22222222  0.00000000       0.074
   0.33333333  0.22222222  0.00000000       0.148
   0.33333333  0.33333333  0.00000000       0.025
 
 position of ions in fractional coordinates (direct lattice) 
   0.66539542  0.73079084  0.49868433
   0.26676624  0.93353248  0.50128279
   0.66634037  0.93272269  0.50036130
   0.26676624  0.73323376  0.50128279
   0.26779665  0.53335828  0.50033892
   0.86666667  0.13333333  0.50029813
   0.26920916  0.33460458  0.49868433
   0.46664172  0.13443838  0.50033892
   0.66634037  0.13361768  0.50036130
   0.46675495  0.93337747  0.50104363
   0.46664172  0.73220335  0.50033892
   0.66539542  0.33460458  0.49868433
   0.46884876  0.53115124  0.49684774
   0.66230247  0.53115124  0.49684774
   0.46884876  0.33769753  0.49684774
   0.86638232  0.33365963  0.50036130
   0.26779665  0.13443838  0.50033892
   0.06646752  0.73323376  0.50128279
   0.86556162  0.73220335  0.50033892
   0.06662253  0.53324505  0.50104363
   0.86556162  0.53335828  0.50033892
   0.06727731  0.33365963  0.50036130
   0.86638232  0.93272269  0.50036130
   0.06727731  0.13361768  0.50036130
   0.06662253  0.93337747  0.50104363
   0.73201248  0.26798752  0.56735659
   0.93388372  0.66694186  0.43309505
   0.73329352  0.26670648  0.43228480
   0.93343365  0.26686730  0.56794812
   0.93351204  0.06648796  0.43271113
   0.93199136  0.66599568  0.56853727
   0.73297591  0.06648796  0.43271113
   0.73313270  0.06656635  0.56794812
   0.93206760  0.86558895  0.56837031
   0.93343365  0.06656635  0.56794812
   0.73201248  0.86402497  0.56735659
   0.73329352  0.86658704  0.43228480
   0.93206760  0.46647865  0.56837031
   0.73364867  0.66531770  0.43083359
   0.72747744  0.66103478  0.56641764
   0.93357729  0.46722357  0.43295793
   0.93351204  0.26702409  0.43271113
   0.73364867  0.46833097  0.43083359
   0.72747744  0.46644266  0.56641764
   0.53277643  0.86635372  0.43295793
   0.13343912  0.66687824  0.43355246
   0.13314912  0.86685088  0.56901834
   0.13343912  0.86656088  0.43355246
   0.33305814  0.06611628  0.43309505
   0.33896522  0.27252256  0.56641764
   0.33400432  0.06800864  0.56853727
   0.13314912  0.66629824  0.56901834
   0.13441105  0.06793240  0.56837031
   0.13364628  0.06642271  0.43295793
   0.13597503  0.26798752  0.56735659
   0.13341296  0.26670648  0.43228480
   0.13441105  0.46647865  0.56837031
   0.13364628  0.46722357  0.43295793
   0.33468230  0.26635133  0.43083359
   0.33896522  0.46644266  0.56641764
   0.53355734  0.27252256  0.56641764
   0.53166903  0.26635133  0.43083359
   0.53333333  0.46666667  0.42816132
   0.53355734  0.66103478  0.56641764
   0.53166903  0.66531770  0.43083359
   0.53352135  0.86558895  0.56837031
   0.33468230  0.46833097  0.43083359
   0.33400432  0.66599568  0.56853727
   0.33305814  0.66694186  0.43309505
   0.33370176  0.86685088  0.56901834
   0.33312176  0.86656088  0.43355246
   0.53352135  0.06793240  0.56837031
   0.53277643  0.06642271  0.43295793
   0.93357729  0.86635372  0.43295793
 
 position of ions in cartesian coordinates  (Angst):
  11.04578590  0.89610977 11.53852103
   9.49604159  9.13666063 11.59864399
  12.65082517  3.65022202 11.57732269
   7.91139854  6.39197834 11.59864399
   6.33825593  3.63897613 11.57680476
   7.91139854-10.04882576 11.57586098
   4.77701117  0.89610977 11.53852103
   4.75538421 -4.55216394 11.57680476
   6.32878700 -7.29986930 11.57732269
  11.07700559  6.39410245 11.59311046
   9.48454114  3.63897613 11.57680476
   7.91139854 -4.53280839 11.53852103
   7.91139854  0.85372729 11.49602609
   9.44188791 -1.79715807 11.49602609
   6.38090916 -1.79715807 11.49602609
   9.49401007 -7.29986930 11.57732269
   3.18224161 -1.82740103 11.57680476
   6.32675548  9.13666063 11.59864399
  12.64055546 -1.82740103 11.57680476
   4.74579148  6.39410245 11.59311046
  11.06741286 -4.55216394 11.57680476
   3.17197190  3.65022202 11.57732269
  14.23343671  0.90905844 11.57732269
   1.58936036  0.90905844 11.57732269
   7.91139854 11.87709471 11.59311046
   7.91139854 -6.35850825 13.12745478
  12.66476911 -3.65788939 10.02092128
   7.91139854 -6.39361624 10.00217367
   9.49605914 -9.13392154 13.14114160
   7.91139854-11.88078271 10.01203817
  12.64231231 -3.64492395 13.15477324
   6.32487728 -9.13284729 10.01203817
   6.32673793 -9.13392154 13.14114160
  14.22197733 -0.91095322 13.15091014
   7.91139854-11.87863422 13.14114160
  12.62688835  1.80895970 13.12745478
  12.65729277  1.82651370 10.00217367
  11.06445671 -6.37993937 13.15091014
  11.06778051 -0.93633548  9.96859577
  10.98507351 -0.91046009 13.10572934
  11.08229389 -6.39041900 10.01774857
   9.49791979 -9.13284729 10.01203817
   9.50933998 -3.63563366  9.96859577
   9.44557773 -3.57694499 13.10572934
  11.06907620  4.57099101 10.01774857
   6.33162956  7.30968649 10.03150470
   7.91139854 10.05387430 13.16590427
   7.91139854 10.04592662 10.03150470
   3.15802796 -3.65788939 10.02092128
   4.83772356 -0.91046009 13.10572934
   3.18048477 -3.64492395 13.15477324
   6.32474666  7.30571265 13.16590427
   1.60081974 -0.91095322 13.15091014
   1.58282551 -0.92116085 10.01774857
   3.19590872  1.80895970 13.12745478
   3.16550430  1.82651370 10.00217367
   4.75387791  4.55030374 13.15091014
   4.75372087  4.57099101 10.01774857
   4.75501656 -0.93633548  9.96859577
   6.37190276  1.74681623 13.10572934
   6.37721934 -3.57694499 13.10572934
   6.31345709 -3.63563366  9.96859577
   7.91139854 -0.91352961  9.90676495
   9.45089431  1.74681623 13.10572934
   9.46983906  1.83138029  9.96859577
  11.06891916  4.55030374 13.15091014
   6.35295801  1.83138029  9.96859577
   7.91139854  4.54925906 13.15477324
   7.91139854  4.57518994 10.02092128
   9.49805041  7.30571265 13.16590427
   9.49116751  7.30968649 10.03150470
   4.75834036 -6.37993937 13.15091014
   4.74050318 -6.39041900 10.01774857
  14.23997156 -0.92116085 10.01774857
 


--------------------------------------------------------------------------------------------------------


 k-point   1 :   0.0000 0.0000 0.0000  plane waves:  167445
 k-point   2 :   0.1111-0.0000 0.0000  plane waves:  167431
 k-point   3 :   0.2222 0.0000 0.0000  plane waves:  167395
 k-point   4 :   0.3333 0.0000 0.0000  plane waves:  167407
 k-point   5 :   0.4444 0.0000 0.0000  plane waves:  167424
 k-point   6 :   0.1111 0.1111 0.0000  plane waves:  167395
 k-point   7 :   0.2222 0.1111 0.0000  plane waves:  167432
 k-point   8 :   0.3333 0.1111 0.0000  plane waves:  167395
 k-point   9 :   0.4444 0.1111 0.0000  plane waves:  167436
 k-point  10 :   0.2222 0.2222 0.0000  plane waves:  167478
 k-point  11 :   0.3333 0.2222 0.0000  plane waves:  167437
 k-point  12 :   0.3333 0.3333 0.0000  plane waves:  167430

 maximum and minimum number of plane-waves per node :     10516    10428

 maximum number of plane-waves:    167478
 maximum index in each direction: 
   IXMAX=   31   IYMAX=   31   IZMAX=   46
   IXMIN=  -32   IYMIN=  -31   IZMIN=  -46


 real space projection operators:
  total allocation   :      15526.88 KBytes
  max/ min on nodes  :        975.20        963.56


 parallel 3D FFT for wavefunctions:
    minimum data exchange during FFTs selected (reduces bandwidth)
 parallel 3D FFT for charge:
    minimum data exchange during FFTs selected (reduces bandwidth)


 total amount of memory used by VASP MPI-rank0   491642. kBytes
=======================================================================

   base      :      30000. kBytes
   nonlr-proj:       5542. kBytes
   fftplans  :       7969. kBytes
   grid      :      19445. kBytes
   one-center:        155. kBytes
   wavefun   :     428531. kBytes
 
     INWAV:  cpu time      0.0002: real time      0.0001
 Broyden mixing: mesh for mixing (old mesh)
   NGX = 63   NGY = 63   NGZ = 93
  (NGX  =192   NGY  =192   NGZ  =280)
  gives a total of 369117 points

 initial charge density was supplied:
 charge density of overlapping atoms calculated
 number of electron     644.0000000 magnetization      74.0000000
 keeping initial charge density in first step


--------------------------------------------------------------------------------------------------------


 Maximum index for non-local projection operator          245
 Maximum index for augmentation-charges          541 (set IRDMAX)


--------------------------------------------------------------------------------------------------------


 First call to EWALD:  gamma=   0.104
 Maximum number of real-space cells 3x 3x 2
 Maximum number of reciprocal cells 3x 3x 4

    FEWALD:  cpu time      0.4658: real time      0.4659


--------------------------------------- Iteration      1(   1)  ---------------------------------------


vdW kernel read from vdw_kernel.bindat
  0.0000  0.2424  0.5071  0.7962  1.1119  1.4567  1.8333  2.2446  2.6937  3.1842
  3.7199  4.3049  4.9438  5.6415  6.4036  7.2358  8.1446  9.1372 10.2212 11.4050
 12.6979 14.1099 15.6519 17.3360 19.1751 21.1837 23.3773 25.7729 28.3892 31.2465
 34.3669 37.7748 41.4965 45.5611 50.0000
 
    POTLOK:  cpu time      7.6382: real time      7.6536
    SETDIJ:  cpu time      2.8504: real time      2.8525
     EDDAV:  cpu time     45.5774: real time     45.6740
 BZINTS: Fermi energy:   10.083168;  644.000000 electrons
         Band energy:-0.583874E+04;  BLOECHL correction:   -0.007159
       DOS:  cpu time      0.4978: real time      0.4978
    --------------------------------------------
      LOOP:  cpu time     56.5640: real time     56.6780

 eigenvalue-minimisations  : 24464
 total energy-change (2. order) : 0.6016664E+04  (-0.3257867E+05)
 number of electron     644.0000000 magnetization      74.0000000
 augmentation part      644.0000000 magnetization      74.0000000

 DIPCOR: dipole corrections for dipol
 direction  3 min pos     1,
 dipolmoment           0.000000      0.000000      0.000006 electrons x Angstroem
 Tr[quadrupol]    -26888.354888

 energy correction for charged system         0.000000 eV
 dipol+quadrupol energy correction           -0.000000 eV
 added-field ion interaction          0.000002 eV  (added to PSCEN)


 Free energy of the ion-electron system (eV)
  ---------------------------------------------------
  alpha Z        PSCENC =       580.68977744
  Ewald energy   TEWEN  =    181411.23174101
  -Hartree energ DENC   =   -233332.56306913
  -exchange      EXHF   =         0.00000000
  -V(xc)+E(xc)   XCENC  =      2277.30211891
  PAW double counting   =     48135.58332963   -47484.65169992
  entropy T*S    EENTRO =         0.00000000
  eigenvalues    EBANDS =     -5838.73688258
  atomic energy  EATOM  =     60267.80825831
  Solvation  Ediel_sol  =         0.00000000
  ---------------------------------------------------
  free energy    TOTEN  =      6016.66357366 eV

  energy without entropy =     6016.66357366  energy(sigma->0) =     6016.66357366


--------------------------------------------------------------------------------------------------------




--------------------------------------- Iteration      1(   2)  ---------------------------------------


     EDDAV:  cpu time     50.4868: real time     50.5232
 BZINTS: Fermi energy:   -0.245603;  644.000000 electrons
         Band energy:-0.115929E+05;  BLOECHL correction:   -0.000000
       DOS:  cpu time      0.3335: real time      0.3342
    --------------------------------------------
      LOOP:  cpu time     50.8202: real time     50.8573

 eigenvalue-minimisations  : 28272
 total energy-change (2. order) :-0.5754147E+04  (-0.5567175E+04)
 number of electron     644.0000000 magnetization      74.0000000
 augmentation part      644.0000000 magnetization      74.0000000

 DIPCOR: dipole corrections for dipol
 direction  3 min pos     1,
 dipolmoment           0.000000      0.000000      0.000006 electrons x Angstroem
 Tr[quadrupol]    -26888.354888

 energy correction for charged system         0.000000 eV
 dipol+quadrupol energy correction           -0.000000 eV
 added-field ion interaction          0.000002 eV  (added to PSCEN)


 Free energy of the ion-electron system (eV)
  ---------------------------------------------------
  alpha Z        PSCENC =       580.68977744
  Ewald energy   TEWEN  =    181411.23174101
  -Hartree energ DENC   =   -233332.56306913
  -exchange      EXHF   =         0.00000000
  -V(xc)+E(xc)   XCENC  =      2277.30211891
  PAW double counting   =     48135.58332963   -47484.65169992
  entropy T*S    EENTRO =         0.00000000
  eigenvalues    EBANDS =    -11592.88438049
  atomic energy  EATOM  =     60267.80825831
  Solvation  Ediel_sol  =         0.00000000
  ---------------------------------------------------
  free energy    TOTEN  =       262.51607575 eV

  energy without entropy =      262.51607575  energy(sigma->0) =      262.51607575


--------------------------------------------------------------------------------------------------------




--------------------------------------- Iteration      1(   3)  ---------------------------------------


     EDDAV:  cpu time     44.5228: real time     44.5627
 BZINTS: Fermi energy:   -2.138676;  644.000000 electrons
         Band energy:-0.122502E+05;  BLOECHL correction:   -0.000000
       DOS:  cpu time      0.3469: real time      0.3476
    --------------------------------------------
      LOOP:  cpu time     44.8697: real time     44.9103

 eigenvalue-minimisations  : 24392
 total energy-change (2. order) :-0.6573474E+03  (-0.6495179E+03)
 number of electron     644.0000000 magnetization      74.0000000
 augmentation part      644.0000000 magnetization      74.0000000

 DIPCOR: dipole corrections for dipol
 direction  3 min pos     1,
 dipolmoment           0.000000      0.000000      0.000006 electrons x Angstroem
 Tr[quadrupol]    -26888.354888

 energy correction for charged system         0.000000 eV
 dipol+quadrupol energy correction           -0.000000 eV
 added-field ion interaction          0.000002 eV  (added to PSCEN)


 Free energy of the ion-electron system (eV)
  ---------------------------------------------------
  alpha Z        PSCENC =       580.68977744
  Ewald energy   TEWEN  =    181411.23174101
  -Hartree energ DENC   =   -233332.56306913
  -exchange      EXHF   =         0.00000000
  -V(xc)+E(xc)   XCENC  =      2277.30211891
  PAW double counting   =     48135.58332963   -47484.65169992
  entropy T*S    EENTRO =         0.00000000
  eigenvalues    EBANDS =    -12250.23175940
  atomic energy  EATOM  =     60267.80825831
  Solvation  Ediel_sol  =         0.00000000
  ---------------------------------------------------
  free energy    TOTEN  =      -394.83130316 eV

  energy without entropy =     -394.83130316  energy(sigma->0) =     -394.83130316


--------------------------------------------------------------------------------------------------------




--------------------------------------- Iteration      1(   4)  ---------------------------------------


     EDDAV:  cpu time     44.6212: real time     44.6535
 BZINTS: Fermi energy:   -2.241068;  644.000000 electrons
         Band energy:-0.122718E+05;  BLOECHL correction:   -0.000000
       DOS:  cpu time      0.3783: real time      0.3782
    --------------------------------------------
      LOOP:  cpu time     44.9995: real time     45.0316

 eigenvalue-minimisations  : 24392
 total energy-change (2. order) :-0.2160313E+02  (-0.2131527E+02)
 number of electron     644.0000000 magnetization      74.0000000
 augmentation part      644.0000000 magnetization      74.0000000

 DIPCOR: dipole corrections for dipol
 direction  3 min pos     1,
 dipolmoment           0.000000      0.000000      0.000006 electrons x Angstroem
 Tr[quadrupol]    -26888.354888

 energy correction for charged system         0.000000 eV
 dipol+quadrupol energy correction           -0.000000 eV
 added-field ion interaction          0.000002 eV  (added to PSCEN)


 Free energy of the ion-electron system (eV)
  ---------------------------------------------------
  alpha Z        PSCENC =       580.68977744
  Ewald energy   TEWEN  =    181411.23174101
  -Hartree energ DENC   =   -233332.56306913
  -exchange      EXHF   =         0.00000000
  -V(xc)+E(xc)   XCENC  =      2277.30211891
  PAW double counting   =     48135.58332963   -47484.65169992
  entropy T*S    EENTRO =         0.00000000
  eigenvalues    EBANDS =    -12271.83488532
  atomic energy  EATOM  =     60267.80825831
  Solvation  Ediel_sol  =         0.00000000
  ---------------------------------------------------
  free energy    TOTEN  =      -416.43442908 eV

  energy without entropy =     -416.43442908  energy(sigma->0) =     -416.43442908


--------------------------------------------------------------------------------------------------------




--------------------------------------- Iteration      1(   5)  ---------------------------------------


     EDDAV:  cpu time     48.2836: real time     48.3195
 BZINTS: Fermi energy:   -2.243317;  644.000000 electrons
         Band energy:-0.122725E+05;  BLOECHL correction:   -0.000000
       DOS:  cpu time      0.3776: real time      0.3775
    CHARGE:  cpu time      2.7725: real time      2.7739
    MIXING:  cpu time      0.0459: real time      0.0460
    --------------------------------------------
      LOOP:  cpu time     51.4799: real time     51.5173

 eigenvalue-minimisations  : 26936
 total energy-change (2. order) :-0.7042518E+00  (-0.6987732E+00)
 number of electron     644.0000044 magnetization      65.8686450
 augmentation part       10.1830275 magnetization      65.5280819

 DIPCOR: dipole corrections for dipol
 direction  3 min pos     1,
 dipolmoment           0.000000      0.000000      0.000006 electrons x Angstroem
 Tr[quadrupol]    -26888.354888

 energy correction for charged system         0.000000 eV
 dipol+quadrupol energy correction           -0.000000 eV
 added-field ion interaction          0.000002 eV  (added to PSCEN)


 Broyden mixing:
  rms(total) = 0.12139E+02    rms(broyden)= 0.12139E+02
  rms(prec ) = 0.12246E+02
  weight for this iteration     100.00

 Free energy of the ion-electron system (eV)
  ---------------------------------------------------
  alpha Z        PSCENC =       580.68977744
  Ewald energy   TEWEN  =    181411.23174101
  -Hartree energ DENC   =   -233332.56306913
  -exchange      EXHF   =         0.00000000
  -V(xc)+E(xc)   XCENC  =      2277.30211891
  PAW double counting   =     48135.58332963   -47484.65169992
  entropy T*S    EENTRO =         0.00000000
  eigenvalues    EBANDS =    -12272.53913708
  atomic energy  EATOM  =     60267.80825831
  Solvation  Ediel_sol  =         0.00000000
  ---------------------------------------------------
  free energy    TOTEN  =      -417.13868084 eV

  energy without entropy =     -417.13868084  energy(sigma->0) =     -417.13868084


--------------------------------------------------------------------------------------------------------




--------------------------------------- Iteration      1(   6)  ---------------------------------------


    POTLOK:  cpu time      6.4788: real time      6.4835
    SETDIJ:  cpu time      2.8955: real time      2.8975
     EDDAV:  cpu time     42.1912: real time     42.2175
 WARNING: Fermi level nearly degenerate with energies of tetrahedron. This may
     result in numerical instabilities because the density changes by tiny
     changes of the Fermi energy. If the calculation converges, the total
     energy will still be reliable. If you notice convergence issues, you can
     try to
     *) Use a Gamma centered k-point grid
     *) Use tetrahedron method without corrections ISMEAR = -4
     *) Don't use tetrahedron method
        ISMEAR = 0 for semiconductors, 1 or 2 for metals

 BZINTS: Fermi energy:   -3.260943;  644.000000 electrons
         Band energy:-0.128650E+05;  BLOECHL correction:   -0.000028
       DOS:  cpu time      0.4906: real time      0.4905
    CHARGE:  cpu time      2.7664: real time      2.7672
    MIXING:  cpu time      0.0325: real time      0.0401
    --------------------------------------------
      LOOP:  cpu time     54.8548: real time     54.8961

 eigenvalue-minimisations  : 22664
 total energy-change (2. order) : 0.3363702E+02  (-0.1963732E+02)
 number of electron     644.0000046 magnetization      58.3179035
 augmentation part       25.3244270 magnetization      57.5382806

 DIPCOR: dipole corrections for dipol
 direction  3 min pos     1,
 dipolmoment           0.000000      0.000000     -0.054389 electrons x Angstroem
 Tr[quadrupol]    -26886.445496

 energy correction for charged system         0.000000 eV
 dipol+quadrupol energy correction           -0.000054 eV
 added-field ion interaction         -0.019491 eV  (added to PSCEN)


 Broyden mixing:
  rms(total) = 0.49417E+01    rms(broyden)= 0.49417E+01
  rms(prec ) = 0.50570E+01
  weight for this iteration     100.00

 eigenvalues of (default mixing * dielectric matrix)
  average eigenvalue GAMMA=   0.9974
  0.9974

 Free energy of the ion-electron system (eV)
  ---------------------------------------------------
  alpha Z        PSCENC =       580.67023015
  Ewald energy   TEWEN  =    181411.23174101
  -Hartree energ DENC   =   -232608.29498991
  -exchange      EXHF   =         0.00000000
  -V(xc)+E(xc)   XCENC  =      2262.92832701
  PAW double counting   =     56613.36868468   -56046.17568217
  entropy T*S    EENTRO =         0.00000000
  eigenvalues    EBANDS =    -12865.03822877
  atomic energy  EATOM  =     60267.80825831
  Solvation  Ediel_sol  =         0.00000000
  ---------------------------------------------------
  free energy    TOTEN  =      -383.50165969 eV

  energy without entropy =     -383.50165969  energy(sigma->0) =     -383.50165969


--------------------------------------------------------------------------------------------------------




--------------------------------------- Iteration      1(   7)  ---------------------------------------


    POTLOK:  cpu time      6.5238: real time      6.5283
    SETDIJ:  cpu time      2.8161: real time      2.8180
     EDDAV:  cpu time     41.3909: real time     41.4199
 BZINTS: Fermi energy:   -2.363683;  644.000000 electrons
         Band energy:-0.122371E+05;  BLOECHL correction:   -0.000000
       DOS:  cpu time      0.3778: real time      0.3777
    CHARGE:  cpu time      2.7323: real time      2.7343
    MIXING:  cpu time      0.0374: real time      0.0396
    --------------------------------------------
      LOOP:  cpu time     53.8784: real time     53.9179

 eigenvalue-minimisations  : 22240
 total energy-change (2. order) :-0.1244762E+01  (-0.6389876E+01)
 number of electron     644.0000046 magnetization      49.9912155
 augmentation part       17.0120985 magnetization      49.8028983

 DIPCOR: dipole corrections for dipol
 direction  3 min pos     1,
 dipolmoment           0.000000      0.000000      0.054870 electrons x Angstroem
 Tr[quadrupol]    -26894.609406

 energy correction for charged system         0.000000 eV
 dipol+quadrupol energy correction           -0.000054 eV
 added-field ion interaction          0.019664 eV  (added to PSCEN)


 Broyden mixing:
  rms(total) = 0.33834E+01    rms(broyden)= 0.33834E+01
  rms(prec ) = 0.34502E+01
  weight for this iteration     100.00

 eigenvalues of (default mixing * dielectric matrix)
  average eigenvalue GAMMA=   1.0337
  1.4846  0.5828

 Free energy of the ion-electron system (eV)
  ---------------------------------------------------
  alpha Z        PSCENC =       580.70938431
  Ewald energy   TEWEN  =    181411.23174101
  -Hartree energ DENC   =   -233263.83018461
  -exchange      EXHF   =         0.00000000
  -V(xc)+E(xc)   XCENC  =      2269.51882577
  PAW double counting   =     63860.37809032   -63273.41540262
  entropy T*S    EENTRO =         0.00000000
  eigenvalues    EBANDS =    -12237.14713388
  atomic energy  EATOM  =     60267.80825831
  Solvation  Ediel_sol  =         0.00000000
  ---------------------------------------------------
  free energy    TOTEN  =      -384.74642140 eV

  energy without entropy =     -384.74642140  energy(sigma->0) =     -384.74642140


--------------------------------------------------------------------------------------------------------




--------------------------------------- Iteration      1(   8)  ---------------------------------------


    POTLOK:  cpu time      6.4932: real time      6.4988
    SETDIJ:  cpu time      2.8468: real time      2.8488
     EDDAV:  cpu time     41.1185: real time     41.1486
 BZINTS: Fermi energy:   -2.691992;  644.000000 electrons
         Band energy:-0.124030E+05;  BLOECHL correction:   -0.000000
       DOS:  cpu time      0.3754: real time      0.3753
    CHARGE:  cpu time      2.7458: real time      2.7475
    MIXING:  cpu time      0.0335: real time      0.0335
    --------------------------------------------
      LOOP:  cpu time     53.6131: real time     53.6525

 eigenvalue-minimisations  : 21912
 total energy-change (2. order) : 0.8628579E+00  (-0.1059044E+01)
 number of electron     644.0000046 magnetization      40.5783062
 augmentation part       19.9509841 magnetization      40.3811217

 DIPCOR: dipole corrections for dipol
 direction  3 min pos     1,
 dipolmoment           0.000000      0.000000     -0.005073 electrons x Angstroem
 Tr[quadrupol]    -26894.291287

 energy correction for charged system         0.000000 eV
 dipol+quadrupol energy correction           -0.000000 eV
 added-field ion interaction         -0.001818 eV  (added to PSCEN)


 Broyden mixing:
  rms(total) = 0.16149E+01    rms(broyden)= 0.16149E+01
  rms(prec ) = 0.16194E+01
  weight for this iteration     100.00

 eigenvalues of (default mixing * dielectric matrix)
  average eigenvalue GAMMA=   1.2383
  2.2403  0.8450  0.6295

 Free energy of the ion-electron system (eV)
  ---------------------------------------------------
  alpha Z        PSCENC =       580.68795664
  Ewald energy   TEWEN  =    181411.23174101
  -Hartree energ DENC   =   -233065.48800063
  -exchange      EXHF   =         0.00000000
  -V(xc)+E(xc)   XCENC  =      2264.37089669
  PAW double counting   =     69420.16835995   -68859.61775773
  entropy T*S    EENTRO =         0.00000000
  eigenvalues    EBANDS =    -12403.04501776
  atomic energy  EATOM  =     60267.80825831
  Solvation  Ediel_sol  =         0.00000000
  ---------------------------------------------------
  free energy    TOTEN  =      -383.88356353 eV

  energy without entropy =     -383.88356353  energy(sigma->0) =     -383.88356353


--------------------------------------------------------------------------------------------------------




--------------------------------------- Iteration      1(   9)  ---------------------------------------


    POTLOK:  cpu time      6.5111: real time      6.5162
    SETDIJ:  cpu time      2.8516: real time      2.8544
     EDDAV:  cpu time     43.4811: real time     43.5128
 BZINTS: Fermi energy:   -2.771827;  644.000000 electrons
         Band energy:-0.123827E+05;  BLOECHL correction:   -0.000000
       DOS:  cpu time      0.3758: real time      0.3757
    CHARGE:  cpu time      2.7505: real time      2.7528
    MIXING:  cpu time      0.0342: real time      0.0360
    --------------------------------------------
      LOOP:  cpu time     56.0043: real time     56.0480

 eigenvalue-minimisations  : 23392
 total energy-change (2. order) :-0.3275526E+01  (-0.3036151E+00)
 number of electron     644.0000046 magnetization      33.2680664
 augmentation part       21.2779721 magnetization      33.0283907

 DIPCOR: dipole corrections for dipol
 direction  3 min pos     1,
 dipolmoment           0.000000      0.000000     -0.006089 electrons x Angstroem
 Tr[quadrupol]    -26895.877493

 energy correction for charged system         0.000000 eV
 dipol+quadrupol energy correction           -0.000001 eV
 added-field ion interaction         -0.002182 eV  (added to PSCEN)


 Broyden mixing:
  rms(total) = 0.11053E+01    rms(broyden)= 0.11053E+01
  rms(prec ) = 0.11155E+01
  weight for this iteration     100.00

 eigenvalues of (default mixing * dielectric matrix)
  average eigenvalue GAMMA=   1.2103
  2.3672  1.1644  0.6549  0.6549

 Free energy of the ion-electron system (eV)
  ---------------------------------------------------
  alpha Z        PSCENC =       580.68759231
  Ewald energy   TEWEN  =    181411.23174101
  -Hartree energ DENC   =   -233076.93725239
  -exchange      EXHF   =         0.00000000
  -V(xc)+E(xc)   XCENC  =      2262.34361661
  PAW double counting   =     73055.51477120   -72505.08095692
  entropy T*S    EENTRO =         0.00000000
  eigenvalues    EBANDS =    -12382.72685924
  atomic energy  EATOM  =     60267.80825831
  Solvation  Ediel_sol  =         0.00000000
  ---------------------------------------------------
  free energy    TOTEN  =      -387.15908911 eV

  energy without entropy =     -387.15908911  energy(sigma->0) =     -387.15908911


--------------------------------------------------------------------------------------------------------




--------------------------------------- Iteration      1(  10)  ---------------------------------------


    POTLOK:  cpu time      6.5227: real time      6.5274
    SETDIJ:  cpu time      2.8455: real time      2.8475
     EDDAV:  cpu time     41.2572: real time     41.2845
 BZINTS: Fermi energy:   -2.626258;  644.000000 electrons
         Band energy:-0.123090E+05;  BLOECHL correction:   -0.000000
       DOS:  cpu time      0.3683: real time      0.3683
    CHARGE:  cpu time      2.7411: real time      2.7419
    MIXING:  cpu time      0.0423: real time      0.0423
    --------------------------------------------
      LOOP:  cpu time     53.7771: real time     53.8119

 eigenvalue-minimisations  : 22024
 total energy-change (2. order) :-0.2527778E+01  (-0.7508887E-01)
 number of electron     644.0000046 magnetization      22.6576769
 augmentation part       20.4775452 magnetization      22.4554978

 DIPCOR: dipole corrections for dipol
 direction  3 min pos     1,
 dipolmoment           0.000000      0.000000      0.011296 electrons x Angstroem
 Tr[quadrupol]    -26897.167967

 energy correction for charged system         0.000000 eV
 dipol+quadrupol energy correction           -0.000002 eV
 added-field ion interaction          0.004048 eV  (added to PSCEN)


 Broyden mixing:
  rms(total) = 0.81853E+00    rms(broyden)= 0.81853E+00
  rms(prec ) = 0.82442E+00
  weight for this iteration     100.00

 eigenvalues of (default mixing * dielectric matrix)
  average eigenvalue GAMMA=   1.2842
  2.5793  1.7073  0.8154  0.6765  0.6428

 Free energy of the ion-electron system (eV)
  ---------------------------------------------------
  alpha Z        PSCENC =       580.69382115
  Ewald energy   TEWEN  =    181411.23174101
  -Hartree energ DENC   =   -233156.42594272
  -exchange      EXHF   =         0.00000000
  -V(xc)+E(xc)   XCENC  =      2261.99447221
  PAW double counting   =     73154.11774039   -72600.11101190
  entropy T*S    EENTRO =         0.00000000
  eigenvalues    EBANDS =    -12308.99594572
  atomic energy  EATOM  =     60267.80825831
  Solvation  Ediel_sol  =         0.00000000
  ---------------------------------------------------
  free energy    TOTEN  =      -389.68686727 eV

  energy without entropy =     -389.68686727  energy(sigma->0) =     -389.68686727


--------------------------------------------------------------------------------------------------------




--------------------------------------- Iteration      1(  11)  ---------------------------------------


    POTLOK:  cpu time      6.5102: real time      6.5151
    SETDIJ:  cpu time      2.8521: real time      2.8541
     EDDAV:  cpu time     41.2230: real time     41.2485
 BZINTS: Fermi energy:   -2.657811;  644.000000 electrons
         Band energy:-0.122568E+05;  BLOECHL correction:   -0.000000
       DOS:  cpu time      0.3627: real time      0.3624
    CHARGE:  cpu time      2.7568: real time      2.7578
    MIXING:  cpu time      0.0426: real time      0.0426
    --------------------------------------------
      LOOP:  cpu time     53.7474: real time     53.7807

 eigenvalue-minimisations  : 22080
 total energy-change (2. order) :-0.3126107E+01  (-0.8138796E-01)
 number of electron     644.0000046 magnetization       9.8328891
 augmentation part       20.1839012 magnetization       9.7187203

 DIPCOR: dipole corrections for dipol
 direction  3 min pos     1,
 dipolmoment           0.000000      0.000000     -0.004376 electrons x Angstroem
 Tr[quadrupol]    -26898.459116

 energy correction for charged system         0.000000 eV
 dipol+quadrupol energy correction           -0.000000 eV
 added-field ion interaction         -0.001568 eV  (added to PSCEN)


 Broyden mixing:
  rms(total) = 0.60880E+00    rms(broyden)= 0.60880E+00
  rms(prec ) = 0.62108E+00
  weight for this iteration     100.00

 eigenvalues of (default mixing * dielectric matrix)
  average eigenvalue GAMMA=   1.5414
  4.1825  2.1540  0.9786  0.6843  0.6843  0.5647

 Free energy of the ion-electron system (eV)
  ---------------------------------------------------
  alpha Z        PSCENC =       580.68820668
  Ewald energy   TEWEN  =    181411.23174101
  -Hartree energ DENC   =   -233212.20794313
  -exchange      EXHF   =         0.00000000
  -V(xc)+E(xc)   XCENC  =      2260.71390053
  PAW double counting   =     73087.69003165   -72531.95108265
  entropy T*S    EENTRO =         0.00000000
  eigenvalues    EBANDS =    -12256.78608644
  atomic energy  EATOM  =     60267.80825831
  Solvation  Ediel_sol  =         0.00000000
  ---------------------------------------------------
  free energy    TOTEN  =      -392.81297404 eV

  energy without entropy =     -392.81297404  energy(sigma->0) =     -392.81297404


--------------------------------------------------------------------------------------------------------




--------------------------------------- Iteration      1(  12)  ---------------------------------------


    POTLOK:  cpu time      6.5183: real time      6.5230
    SETDIJ:  cpu time      2.8313: real time      2.8333
     EDDAV:  cpu time     41.8500: real time     41.8755
 BZINTS: Fermi energy:   -2.595998;  644.000000 electrons
         Band energy:-0.122073E+05;  BLOECHL correction:   -0.000000
       DOS:  cpu time      0.3684: real time      0.3690
    CHARGE:  cpu time      2.7403: real time      2.7405
    MIXING:  cpu time      0.0443: real time      0.0443
    --------------------------------------------
      LOOP:  cpu time     54.3526: real time     54.3856

 eigenvalue-minimisations  : 22496
 total energy-change (2. order) :-0.2270740E+01  (-0.8434024E-01)
 number of electron     644.0000046 magnetization       4.9972330
 augmentation part       20.2578052 magnetization       4.9595061

 DIPCOR: dipole corrections for dipol
 direction  3 min pos     1,
 dipolmoment           0.000000      0.000000      0.000213 electrons x Angstroem
 Tr[quadrupol]    -26899.940957

 energy correction for charged system         0.000000 eV
 dipol+quadrupol energy correction           -0.000000 eV
 added-field ion interaction          0.000076 eV  (added to PSCEN)


 Broyden mixing:
  rms(total) = 0.43678E+00    rms(broyden)= 0.43678E+00
  rms(prec ) = 0.44859E+00
  weight for this iteration     100.00

 eigenvalues of (default mixing * dielectric matrix)
  average eigenvalue GAMMA=   1.6913
  5.8021  2.2664  1.1623  0.7620  0.7620  0.6092  0.4754

 Free energy of the ion-electron system (eV)
  ---------------------------------------------------
  alpha Z        PSCENC =       580.68985161
  Ewald energy   TEWEN  =    181411.23174101
  -Hartree energ DENC   =   -233262.78883097
[...]
  277            fftwav_mpi                           15.784479                     3816   5
  278              fft3d_mpi                            13.203065                   3816   6
  279                fftbas_mpi                           13.185920                 3816   7
  280                  fftbas_plan_mpi                      13.173579               3816   8
  281                    dfftw_execute                         5.348813            11448   9
  282                    map_forward                           5.859332             7632   9
  283                      map_gather                            0.920955           3816  10
  284                      m_alltoallv_z                         2.351299           3816  10
  285                      map_scatter                           1.186530           3816  10
  286            rpromu                                2.349971                      972   5
  287              crrexp_mul_wave                       0.718199                 282384   6
  288              rpromu_gemm                           0.761601                  71928   6
  289              m_sumb_d                              0.320317                   3816   6
  290          m_sumb_d                              0.146886                         10   4
  291        m_sumb_d                              0.012377                            7   3
  292        fft3d_mpi                             0.890584                           82   3
  293          fftbrc_mpi                            0.847344                         82   4
  294            fftbas_plan_mpi                       0.847113                       82   5
  295              dfftw_execute                         0.200761                    246   6
  296              map_forward                           0.264088                     80   6
  297                map_gather                            0.063369                   40   7
  298                m_alltoallv_z                         0.172685                   40   7
  299                map_scatter                           0.027137                   40   7
  300              map_backward                          0.331676                     84   6
  301                map_gather                            0.031408                   42   7
  302                m_alltoallv_z                         0.173365                   42   7
  303                map_scatter                           0.126057                   42   7
  304        forhar                                0.482936                            2   3
  305          m_sumb_d                              0.005648                          2   4
  306        strehar                               0.014427                            1   3
  307          m_sumb_d                              0.001731                          1   4
  308        chggra                                0.045593                            1   3
  309          fft3d_mpi                             0.030009                          3   4
  310            fftbrc_mpi                            0.028470                        3   5
  311              fftbas_plan_mpi                       0.028461                      3   6
  312                dfftw_execute                         0.007447                    9   7
  313                map_backward                          0.006996                    2   7
  314                  map_gather                            0.000867                  1   8
  315                  m_alltoallv_z                         0.003674                  1   8
  316                  map_scatter                           0.002427                  1   8
  317                map_forward                           0.012246                    4   7
  318                  map_gather                            0.004354                  2   8
  319                  m_alltoallv_z                         0.006535                  2   8
  320                  map_scatter                           0.001317                  2   8
  321          m_sumb_d                              0.000101                          2   4
  322          pothar                                0.004188                          1   4
  323            m_sumb_d                              0.001648                        1   5
  324        brmix                                 0.108902                            1   3
  325          m_sumb_d                              0.003699                          6   4
  326          brpre                                 0.000235                          2   4
  327          setg0                                 0.006840                          1   4
  328          broyd                                 0.054351                          1   4
  329            m_sumb_d                              0.003464                       39   5
  330            brget                                 0.011087                      201   5
  331            brsav                                 0.003272                       37   5
  332          m_bcast_z                             0.034413                          1   4
  333          m_bcast_d                             0.000163                          1   4
  334        m_bcast_d                             0.008453                            2   3
  335      potlok                                6.491546                              1   2
  336        fft3d_mpi                             0.864221                           86   3
  337          fftbrc_mpi                            0.815701                         86   4
  338            fftbas_plan_mpi                       0.815431                       86   5
  339              dfftw_execute                         0.205593                    258   6
  340              map_forward                           0.236534                     88   6
  341                map_gather                            0.065573                   46   7
  342                m_alltoallv_z                         0.139473                   46   7
  343                map_scatter                           0.030558                   46   7
  344              map_backward                          0.321841                     84   6
  345                map_gather                            0.031856                   42   7
  346                m_alltoallv_z                         0.151490                   42   7
  347                map_scatter                           0.137675                   42   7
  348        m_sumb_d                              0.013615                            8   3
  349        fewald                                0.001588                            2   3
  350          rsp                                   0.001368                          2   4
  351          rcp                                   0.000193                          2   4
  352        pothar                                0.002156                            1   3
  353          m_sumb_d                              0.000462                          1   4
  354        m_bcast_d                             0.003757                            2   3
  355      potlok_metagga                        0.000001                              1   2
  356      set_dd_magatom                        0.000001                              1   2
  357      set_dd_paw                            2.810106                              1   2
  358        set_rsgf_all                          0.000001                            1   3
  359        m_sumb_d                              2.809632                            8   3
  360      densta                              131.290243                              1   2
  361        m_bcast_z                             0.000584                            1   3
 
 Flat profile
 ============
 
             routine name                   CPU           calls
 ---------------------------------------------------------------
 total_time                            597.539074           1
 ggemm                                 480.201733       31895
 dfftw_execute                         214.762705      443904
 potlok                                191.442880          34
 densta                                145.154043          38
 orth1                                 138.434542       72209
 m_sumb_d                              137.733424      278932
 m_alltoallv_z                          95.290392      148102
 eddav                                  94.880976          37
 fftbas_plan_mpi                        75.700462      147968
 m_alltoall_d                           73.215977      354522
 fftwav_mpi                             55.562583       96720
 map_scatter                            50.699967      148102
 m_bcast_z                              47.423242       36882
 map_gather                             46.741591      148102
 vhamil                                 41.087438       48102
 set_charge                             35.631509          33
 map_forward                            34.588647      196526
 sphpro_fast                            21.658456           2
 lincom                                 21.034334         152
 lapack                                 16.614708       24051
 crrexp_mul_work_add                    13.093193     3559548
 gemm                                   12.714291     1779774
 rpromu_gemm                             9.191990     1303214
 eccp                                    8.533739       15688
 racc0mu                                 8.388081       24051
 w1_copy                                 8.320885      144306
 crrexp_mul_wave                         7.291842     2806524
 redis_pw                                7.182688      128922
 rpromu                                  6.436428       17611
 pw_charge                               6.285220       10692
 fftext_mpi                              5.591198       48102
 force_and_stress                        5.581907           1
 kinhamil                                3.660720       48102
 apply_precond                           2.952314       32414
 m_bcast_d                               2.456952       48209
 fft3d_mpi                               2.211660      147968
 redis_proj                              1.996491      161340
 setup_precond                           1.840927       15688
 overl                                   1.694806       80520
 setdij_                                 1.124710          61
 augmentation_charge                     1.024315          33
 map_backward                            0.912995       99410
 overl1                                  0.811652       48102
 hamiltmu                                0.646795       24051
 newband                                 0.595430       24199
 phaser                                  0.568666         174
 broyd                                   0.490211          33
 forhar                                  0.477288           2
 fftbas_mpi                              0.437396      144822
 elmin                                   0.421685           1
 brmix                                   0.342768          33
 raccmu_                                 0.292340       24051
 forloc                                  0.251574           1
 soft_charge                             0.247347          33
 setg0                                   0.238724          35
 brget                                   0.171946        3108
 rspher_all                              0.159788          14
 stufak                                  0.152735           1
 w1_projall                              0.110212       16207
 choleski                                0.101143           4
 brsav                                   0.088114         699
 depsum                                  0.086093          33
 inisym                                  0.081097           1
 truncate_high_frequency_w1              0.062112       63790
 pothar                                  0.060066          35
 rsp                                     0.047462          69
 rpro_isp                                0.045864          26
 strnlr                                  0.030887           1
 strkin                                  0.026723           1
 strelo                                  0.013093           1
 strehar                                 0.012696           1
 set_dd_paw                              0.011847          35
 chggra                                  0.011295           1
 fornlr                                  0.010840           1
 fft_gq                                  0.009328          33
 fftbrc_mpi                              0.009046        3146
 brpre                                   0.008411          66
 rcp                                     0.007093          69
 fewald                                  0.006809          69
 orthch                                  0.004340           1
 brgrid                                  0.003388           1
 vectorpot                               0.000690          34
 posmap                                  0.000277           2
 crpa_reader                             0.000262           1
 fordep                                  0.000195           1
 potlok_metagga                          0.000151          34
 set_rsgf_all                            0.000125          35
 proall                                  0.000075           1
 set_dd_magatom                          0.000044          35
 rotate_active_occupied_orbital          0.000018           1
 redis_pw_over_bands                     0.000001           1
 ---------------------------------------------------------------
  summed up times    2741.04217600822     
 
 Accumulative profile
 ====================
 
             routine name                   CPU           calls
 ---------------------------------------------------------------
 total_time                           2741.042176           1
 elmin                                1892.001092           1
 eddav                                1477.270121          37
 fft3d_mpi                             521.354859      147968
 fftbas_plan_mpi                       518.696758      147968
 fftbas_mpi                            487.825051      144822
 ggemm                                 480.201733       31895
 fftwav_mpi                            390.174287       96720
 hamiltmu                              245.919439       24051
 potlok                                222.929057          34
 dfftw_execute                         214.762705      443904
 kinhamil                              163.032097       48102
 fftext_mpi                            159.371377       48102
 map_forward                           156.268804      196526
 densta                                145.168123          38
 orth1                                 138.434542       72209
 m_sumb_d                              137.733424      278932
 set_dd_paw                             99.180912          35
 m_alltoallv_z                          95.290392      148102
 set_charge                             90.589028          33
 newband                                85.784502       24199
 m_alltoall_d                           73.215977      354522
 map_backward                           71.964787       99410
 redis_pw                               59.560811      128922
 map_scatter                            50.699967      148102
 soft_charge                            50.532354          33
 m_bcast_z                              47.423242       36882
 map_gather                             46.741591      148102
 raccmu_                                41.153110       24051
 vhamil                                 41.087438       48102
 racc0mu                                40.049117       24051
 force_and_stress                       38.172306           1
 fftbrc_mpi                             31.318148        3146
 rpromu                                 26.951645       17611
 rpro_isp                               26.271969          26
 w1_projall                             23.648293       16207
 redis_proj                             22.834345      161340
 sphpro_fast                            21.984009           2
 lincom                                 21.034334         152
 strnlr                                 18.503105           1
 lapack                                 16.614708       24051
 crrexp_mul_work_add                    13.093193     3559548
 gemm                                   12.714291     1779774
 eccp                                    9.369338       15688
 rpromu_gemm                             9.191990     1303214
 w1_copy                                 8.320885      144306
 crrexp_mul_wave                         7.291842     2806524
 pw_charge                               6.285220       10692
 fornlr                                  6.149125           1
 apply_precond                           2.952314       32414
 setup_precond                           2.470918       15688
 m_bcast_d                               2.456952       48209
 proall                                  2.060164           1
 brmix                                   1.958563          33
 augmentation_charge                     1.874177          33
 overl                                   1.694806       80520
 setdij_                                 1.228920          61
 orthch                                  1.118273           1
 broyd                                   0.840959          33
 overl1                                  0.811652       48102
 phaser                                  0.568666         174
 fewald                                  0.519106          69
 forhar                                  0.482936           2
 depsum                                  0.367482          33
 fft_gq                                  0.256873          33
 forloc                                  0.251739           1
 setg0                                   0.238724          35
 brget                                   0.171946        3108
 rspher_all                              0.159788          14
 stufak                                  0.152735           1
 fordep                                  0.119813           1
 choleski                                0.101143           4
 pothar                                  0.094622          35
 brsav                                   0.088114         699
 inisym                                  0.081374           1
 truncate_high_frequency_w1              0.062112       63790
 rsp                                     0.047462          69
 chggra                                  0.045593           1
 strkin                                  0.027527           1
 strelo                                  0.014464           1
 strehar                                 0.014427           1
 brpre                                   0.008411          66
 rcp                                     0.007093          69
 brgrid                                  0.003388           1
 vectorpot                               0.000690          34
 posmap                                  0.000277           2
 crpa_reader                             0.000262           1
 potlok_metagga                          0.000151          34
 set_rsgf_all                            0.000125          35
 set_dd_magatom                          0.000044          35
 rotate_active_occupied_orbital          0.000018           1
 redis_pw_over_bands                     0.000001           1
 ---------------------------------------------------------------
 
Profiling took   7.822965  3.974784  0.009066  0.008341 seconds
Profiling took   7.798309 seconds
