 vasp.6.3.2 27Jun22 (build Jan 03 2024 23:25:20) gamma-only                     
  
 executed on           IFC15_impi date 2024.07.15  05:46:12
 running  192 mpi-ranks, with    1 threads/rank
 distrk:  each k-point on  192 cores,    1 groups
 distr:  one band on NCORE=   4 cores,   48 groups


--------------------------------------------------------------------------------------------------------


 INCAR:
   ENCUT = 600.00
   EDIFF = 1.00e-06
   EDIFFG = -0.01
   IBRION = 2
   ALGO = Normal
   ISMEAR = 0
   SIGMA = 0.05
   LCHARG = .FALSE.
   LWAVE = .FALSE.
   LREAL = Auto
   NELM = 2000
   NSW = 5000
   NCORE = 4
   ISPIN = 2
   GGA = MK
   PARAM1 = 0.1234
   PARAM2 = 1.0
   AGGAC = 0.0
   LUSE_VDW = .TRUE.
   LASPH = .TRUE.

 POTCAR:    PAW_PBE C 08Apr2002                   
 POTCAR:    PAW_PBE F 08Apr2002                   
 POTCAR:    PAW_PBE H 15Jun2001                   
 -----------------------------------------------------------------------------
|                                                                             |
|           W    W    AA    RRRRR   N    N  II  N    N   GGGG   !!!           |
|           W    W   A  A   R    R  NN   N  II  NN   N  G    G  !!!           |
|           W    W  A    A  R    R  N N  N  II  N N  N  G       !!!           |
|           W WW W  AAAAAA  RRRRR   N  N N  II  N  N N  G  GGG   !            |
|           WW  WW  A    A  R   R   N   NN  II  N   NN  G    G                |
|           W    W  A    A  R    R  N    N  II  N    N   GGGG   !!!           |
|                                                                             |
|     You use a magnetic or noncollinear calculation, but did not specify     |
|     the initial magnetic moment with the MAGMOM tag. Note that a            |
|     default of 1 will be used for all atoms. This ferromagnetic setup       |
|     may break the symmetry of the crystal, in particular it may rule        |
|     out finding an antiferromagnetic solution. Thence, we recommend         |
|     setting the initial magnetic moment manually or verifying carefully     |
|     that this magnetic setup is desired.                                    |
|                                                                             |
 -----------------------------------------------------------------------------

 -----------------------------------------------------------------------------
|                                                                             |
|               ----> ADVICE to this user running VASP <----                  |
|                                                                             |
|     You have switched on vdW-DFT.                                           |
|     This routine was written and supplied by Jiri Klimes. We recommend      |
|     that you carefully read and cite the following publications:            |
|       J. Klimes, D.R. Bowler, A. Michelides                                 |
|          J. Phys.: Cond Matt. 22 022201 (2010)                              |
|       J. Klimes, D.R. Bowler, A. Michelides                                 |
|          Phys. Rev. B. 83, 195131 (2011)                                    |
|     and references therein.                                                 |
|                                                                             |
 -----------------------------------------------------------------------------

 POTCAR:    PAW_PBE C 08Apr2002                   
   SHA256 =  253f7b50bb8d59471dbedb8285d89021f4a42ed1a2c5d38a03a736e69125dd95 C/POTCAR              
   COPYR  = (c) Copyright 08Apr2002 Georg Kresse                                                    
   COPYR  = This file is part of the software VASP. Any use, copying, and all other rights are regul
   COPYR  = If you do not have a valid VASP license, you may not use, copy or distribute this file. 
   VRHFIN =C: s2p2                                                                                  
   LEXCH  = PE                                                                                      
   EATOM  =   147.1560 eV,   10.8157 Ry                                                             
                                                                                                    
   TITEL  = PAW_PBE C 08Apr2002                                                                     
   LULTRA =        F    use ultrasoft PP ?                                                          
   IUNSCR =        1    unscreen: 0-lin 1-nonlin 2-no                                               
   RPACOR =    1.200    partial core radius                                                         
   POMASS =   12.011; ZVAL   =    4.000    mass and valenz                                          
   RCORE  =    1.500    outmost cutoff radius                                                       
   RWIGS  =    1.630; RWIGS  =    0.863    wigner-seitz radius (au A)                               
   ENMAX  =  400.000; ENMIN  =  300.000 eV                                                          
   ICORE  =        2    local potential                                                             
   LCOR   =        T    correct aug charges                                                         
   LPAW   =        T    paw PP                                                                      
   EAUG   =  644.873                                                                                
   DEXC   =    0.000                                                                                
   RMAX   =    1.529    core radius for proj-oper                                                   
   RAUG   =    1.300    factor for augmentation sphere                                              
   RDEP   =    1.501    radius for radial grids                                                     
   RDEPT  =    1.300    core radius for aug-charge                                                  
                                                                                                    
   Atomic configuration                                                                             
    4 entries                                                                                       
     n  l   j            E        occ.                                                              
     1  0  0.50      -273.3789   2.0000                                                             
     2  0  0.50       -13.7508   2.0000                                                             
     2  1  0.50        -5.2854   2.0000                                                             
     3  2  1.50        -5.4423   0.0000                                                             
   Description                                                                                      
     l       E           TYP  RCUT    TYP  RCUT                                                     
     0    -13.7508458     23  1.200                                                                 
     0     -8.2022199     23  1.200                                                                 
     1     -5.2854383     23  1.500                                                                 
     1     34.0145650     23  1.500                                                                 
     2     -5.4423304      7  1.500                                                                 
  local pseudopotential read in
  partial core-charges read in
  partial kinetic energy density read in
  atomic valenz-charges read in
  non local Contribution for L=           0  read in
    real space projection operators read in
  non local Contribution for L=           0  read in
    real space projection operators read in
  non local Contribution for L=           1  read in
    real space projection operators read in
  non local Contribution for L=           1  read in
    real space projection operators read in
    PAW grid and wavefunctions read in
 
   number of l-projection  operators is LMAX  =           4
   number of lm-projection operators is LMMAX =           8
 
 POTCAR:    PAW_PBE F 08Apr2002                   
   SHA256 =  53c630871ac675939349fc2b976745ee17808dedc90b5bdde026bc81f0faf456 F/POTCAR              
   COPYR  = (c) Copyright 08Apr2002 Georg Kresse                                                    
   COPYR  = This file is part of the software VASP. Any use, copying, and all other rights are regul
   COPYR  = If you do not have a valid VASP license, you may not use, copy or distribute this file. 
   VRHFIN =F: s2p5                                                                                  
   LEXCH  = PE                                                                                      
   EATOM  =   659.6475 eV,   48.4827 Ry                                                             
                                                                                                    
   TITEL  = PAW_PBE F 08Apr2002                                                                     
   LULTRA =        F    use ultrasoft PP ?                                                          
   IUNSCR =        1    unscreen: 0-lin 1-nonlin 2-no                                               
   RPACOR =    1.200    partial core radius                                                         
   POMASS =   18.998; ZVAL   =    7.000    mass and valenz                                          
   RCORE  =    1.520    outmost cutoff radius                                                       
   RWIGS  =    1.500; RWIGS  =    0.794    wigner-seitz radius (au A)                               
   ENMAX  =  400.000; ENMIN  =  300.000 eV                                                          
   ICORE  =        2    local potential                                                             
   LCOR   =        T    correct aug charges                                                         
   LPAW   =        T    paw PP                                                                      
   EAUG   =  613.614                                                                                
   RMAX   =    1.555    core radius for proj-oper                                                   
   RAUG   =    1.300    factor for augmentation sphere                                              
   RDEP   =    1.539    radius for radial grids                                                     
   RDEPT  =    1.299    core radius for aug-charge                                                  
                                                                                                    
   Atomic configuration                                                                             
    4 entries                                                                                       
     n  l   j            E        occ.                                                              
     1  0  0.50      -663.3661   2.0000                                                             
     2  0  0.50       -29.8995   2.0000                                                             
     2  1  0.50       -11.1114   5.0000                                                             
     3  2  1.50       -10.8847   0.0000                                                             
   Description                                                                                      
     l       E           TYP  RCUT    TYP  RCUT                                                     
     0    -29.8995018     23  1.200                                                                 
     0     -9.5240782     23  1.200                                                                 
     1    -11.1113914     23  1.520                                                                 
     1      1.3605826     23  1.520                                                                 
     2    -10.8846608      7  1.500                                                                 
  local pseudopotential read in
  partial core-charges read in
  partial kinetic energy density read in
  atomic valenz-charges read in
  non local Contribution for L=           0  read in
    real space projection operators read in
  non local Contribution for L=           0  read in
    real space projection operators read in
  non local Contribution for L=           1  read in
    real space projection operators read in
  non local Contribution for L=           1  read in
    real space projection operators read in
    PAW grid and wavefunctions read in
 
   number of l-projection  operators is LMAX  =           4
   number of lm-projection operators is LMMAX =           8
 
 POTCAR:    PAW_PBE H 15Jun2001                   
   SHA256 =  030f79b5d3ab3cf0e668861823c8fb652ff669f3e15e46930bd03bfd63a607b6 H/POTCAR              
   COPYR  = (c) Copyright 15Jun2001 Georg Kresse                                                    
   COPYR  = This file is part of the software VASP. Any use, copying, and all other rights are regul
   COPYR  = If you do not have a valid VASP license, you may not use, copy or distribute this file. 
   VRHFIN =H: ultrasoft test                                                                        
   LEXCH  = PE                                                                                      
   EATOM  =    12.4884 eV,    0.9179 Ry                                                             
                                                                                                    
   TITEL  = PAW_PBE H 15Jun2001                                                                     
   LULTRA =        F    use ultrasoft PP ?                                                          
   IUNSCR =        0    unscreen: 0-lin 1-nonlin 2-no                                               
   RPACOR =    0.000    partial core radius                                                         
   POMASS =    1.000; ZVAL   =    1.000    mass and valenz                                          
   RCORE  =    1.100    outmost cutoff radius                                                       
   RWIGS  =    0.700; RWIGS  =    0.370    wigner-seitz radius (au A)                               
   ENMAX  =  250.000; ENMIN  =  200.000 eV                                                          
   RCLOC  =    0.701    cutoff for local pot                                                        
   LCOR   =        T    correct aug charges                                                         
   LPAW   =        T    paw PP                                                                      
   EAUG   =  400.000                                                                                
   RMAX   =    1.123    core radius for proj-oper                                                   
   RAUG   =    1.200    factor for augmentation sphere                                              
   RDEP   =    1.112    radius for radial grids                                                     
   RDEPT  =    0.926    core radius for aug-charge                                                  
                                                                                                    
   Atomic configuration                                                                             
    2 entries                                                                                       
     n  l   j            E        occ.                                                              
     1  0  0.50        -6.4927   1.0000                                                             
     2  1  0.50        -3.4015   0.0000                                                             
   Description                                                                                      
     l       E           TYP  RCUT    TYP  RCUT                                                     
     0     -6.4927494     23  1.100                                                                 
     0      6.8029130     23  1.100                                                                 
     1     -4.0817478     23  1.100                                                                 
  local pseudopotential read in
  atomic valenz-charges read in
  non local Contribution for L=           0  read in
    real space projection operators read in
  non local Contribution for L=           0  read in
    real space projection operators read in
  non local Contribution for L=           1  read in
    real space projection operators read in
    PAW grid and wavefunctions read in
 
   number of l-projection  operators is LMAX  =           3
   number of lm-projection operators is LMMAX =           5
 
 Optimization of the real space projectors (new method)

 maximal supplied QI-value         = 25.13
 optimisation between [QCUT,QGAM] = [ 12.32, 24.88] = [ 42.47,173.37] Ry 
 Optimized for a Real-space Cutoff    1.06 Angstroem

   l    n(q)    QCUT    max X(q) W(low)/X(q) W(high)/X(q)  e(spline) 
   0      8    12.315   115.676    0.34E-03    0.18E-03    0.23E-06
   0      8    12.315    87.132    0.34E-03    0.18E-03    0.22E-06
   1      7    12.315     4.429    0.45E-03    0.12E-03    0.18E-06
   1      7    12.315     2.733    0.35E-03    0.97E-04    0.15E-06
 Optimization of the real space projectors (new method)

 maximal supplied QI-value         = 24.76
 optimisation between [QCUT,QGAM] = [ 12.38, 25.00] = [ 42.90,175.06] Ry 
 Optimized for a Real-space Cutoff    1.03 Angstroem

   l    n(q)    QCUT    max X(q) W(low)/X(q) W(high)/X(q)  e(spline) 
   0      8    12.378    14.049    0.35E-03    0.80E-04    0.14E-06
   0      8    12.378     8.945    0.50E-03    0.13E-03    0.19E-06
   1      7    12.378     7.086    0.49E-03    0.21E-03    0.21E-06
   1      7    12.378     6.747    0.44E-03    0.20E-03    0.19E-06
 Optimization of the real space projectors (new method)

 maximal supplied QI-value         = 34.20
 optimisation between [QCUT,QGAM] = [ 12.31, 24.97] = [ 42.46,174.58] Ry 
 Optimized for a Real-space Cutoff    1.00 Angstroem

   l    n(q)    QCUT    max X(q) W(low)/X(q) W(high)/X(q)  e(spline) 
   0      7    12.313    19.460    0.14E-03    0.42E-03    0.16E-06
   0      7    12.313    12.209    0.12E-03    0.40E-03    0.16E-06
   1      7    12.313     4.655    0.33E-03    0.59E-03    0.89E-07
 -----------------------------------------------------------------------------
|                                                                             |
|               ----> ADVICE to this user running VASP <----                  |
|                                                                             |
|     You enforced a specific xc type in the INCAR file but a different       |
|     type was found in the POTCAR file.                                      |
|     I HOPE YOU KNOW WHAT YOU ARE DOING!                                     |
|                                                                             |
 -----------------------------------------------------------------------------

  PAW_PBE C 08Apr2002                   :
 energy of atom  1       EATOM= -147.1560
 kinetic energy error for atom=    0.0057 (will be added to EATOM!!)
  PAW_PBE F 08Apr2002                   :
 energy of atom  2       EATOM= -659.6475
 kinetic energy error for atom=    0.0256 (will be added to EATOM!!)
  PAW_PBE H 15Jun2001                   :
 energy of atom  3       EATOM=  -12.4884
 kinetic energy error for atom=    0.0004 (will be added to EATOM!!)
 
 
 POSCAR: C  F  H
  positions in cartesian coordinates
  No initial velocities read in
 exchange correlation table for  LEXCH =       43
   RHO(1)=    0.500       N(1)  =     2000
   RHO(2)=  100.500       N(2)  =     4000

 VTST: version 4.1, (05/19/21)

 CHAIN: initializing optimizer
 
 OPT: Using VASP Conjugate-Gradient optimizer
 CHAIN: Read ICHAIN            0
 
 POSCAR: C  F  H
  positions in cartesian coordinates
  No initial velocities read in
 


--------------------------------------------------------------------------------------------------------


 ion  position               nearest neighbor table
   1  0.512  0.511  0.483-   8 1.09   6 1.40   2 1.40
   2  0.557  0.600  0.502-   9 1.09   4 1.39   1 1.40
   3  0.469  0.423  0.541-  11 1.09   5 1.39   6 1.40
   4  0.558  0.600  0.541-  10 1.09   5 1.39   2 1.39
   5  0.513  0.511  0.559-   7 1.37   3 1.39   4 1.39
   6  0.468  0.423  0.502-  12 1.09   3 1.40   1 1.40
   7  0.514  0.511  0.597-   5 1.37
   8  0.507  0.509  0.453-   1 1.09
   9  0.592  0.669  0.488-   2 1.09
  10  0.592  0.668  0.556-   4 1.09
  11  0.434  0.354  0.556-   3 1.09
  12  0.433  0.353  0.488-   6 1.09
 
  LATTYP: Found a hexagonal cell.
 ALAT       =    15.8227970706
 C/A-ratio  =     2.3015724012
  
  Lattice vectors:
  
 A1 = (   7.9113985353, -13.7029442220,   0.0000000000)
 A2 = (   7.9113985353,  13.7029442220,   0.0000000000)
 A3 = (   0.0000000000,   0.0000000000,  36.4173130480)


Analysis of symmetry for initial positions (statically):
=====================================================================
 Subroutine PRICEL returns:
 Original cell was already a primitive cell.
 

 Routine SETGRP: Setting up the symmetry group for a 
 hexagonal supercell.


 Subroutine GETGRP returns: Found  1 space group operations
 (whereof  1 operations were pure point group operations)
 out of a pool of 24 trial point group operations.


The static configuration has the point symmetry C_1 .


Analysis of symmetry for dynamics (positions and initial velocities):
=====================================================================
 Subroutine PRICEL returns:
 Original cell was already a primitive cell.
 

 Routine SETGRP: Setting up the symmetry group for a 
 hexagonal supercell.


 Subroutine GETGRP returns: Found  1 space group operations
 (whereof  1 operations were pure point group operations)
 out of a pool of 24 trial point group operations.


The dynamic configuration has the point symmetry C_1 .


Analysis of structural, dynamic, and magnetic symmetry:
=====================================================================
 Subroutine PRICEL returns:
 Original cell was already a primitive cell.
 

 Routine SETGRP: Setting up the symmetry group for a 
 hexagonal supercell.


 Subroutine GETGRP returns: Found  1 space group operations
 (whereof  1 operations were pure point group operations)
 out of a pool of 24 trial point group operations.


The overall configuration has the point symmetry C_1 .


 Subroutine INISYM returns: Found  1 space group operations
 (whereof  1 operations are pure point group operations),
 and found     1 'primitive' translations


----------------------------------------------------------------------------------------

                                     Primitive cell                                     

  volume of cell :    7895.9620

  direct lattice vectors                    reciprocal lattice vectors
     7.911398535-13.702944222  0.000000000     0.063199951 -0.036488509  0.000000000
     7.911398535 13.702944222  0.000000000     0.063199951  0.036488509  0.000000000
     0.000000000  0.000000000 36.417313048     0.000000000  0.000000000  0.027459467

  length of vectors
    15.822797071 15.822797071 36.417313048     0.072977017  0.072977017  0.027459467

  position of ions in fractional coordinates (direct lattice)
     0.512410964  0.511156053  0.482986329
     0.557000703  0.599577200  0.502464316
     0.468541432  0.422537536  0.540786332
     0.557515802  0.599986974  0.540758158
     0.513263933  0.511265551  0.559206769
     0.468212994  0.422816118  0.502455171
     0.513974802  0.511399369  0.596813158
     0.506817390  0.508874906  0.453048009
     0.591807175  0.668913452  0.487656603
     0.591944167  0.668151032  0.556250624
     0.434358411  0.354346556  0.556258636
     0.432943959  0.353368290  0.487753545

  ion indices of the primitive-cell ions
   primitive index   ion index
                 1           1
                 2           2
                 3           3
                 4           4
                 5           5
                 6           6
                 7           7
                 8           8
                 9           9
                10          10
                11          11
                12          12

----------------------------------------------------------------------------------------

 
 
 KPOINTS: K-Points                                

Automatic generation of k-mesh.
 Grid dimensions read from file:
 generate k-points for:    1    1    1

 Generating k-lattice:

  Cartesian coordinates                     Fractional coordinates (reciprocal lattice)
     0.063199951 -0.036488509  0.000000000     1.000000000  0.000000000  0.000000000
     0.063199951  0.036488509  0.000000000    -0.000000000  1.000000000  0.000000000
     0.000000000  0.000000000  0.027459467     0.000000000  0.000000000  1.000000000

  Length of vectors
     0.072977017  0.072977017  0.027459467

  Shift w.r.t. Gamma in fractional coordinates (k-lattice)
     0.000000000  0.000000000  0.000000000

 
 Subroutine IBZKPT returns following result:
 ===========================================
 
 Found      1 irreducible k-points:
 
 Following reciprocal coordinates:
            Coordinates               Weight
  0.000000  0.000000  0.000000      1.000000
 
 Following cartesian coordinates:
            Coordinates               Weight
  0.000000  0.000000  0.000000      1.000000
 


--------------------------------------------------------------------------------------------------------




 Dimension of arrays:
   k-points           NKPTS =      1   k-points in BZ     NKDIM =      1   number of bands    NBANDS=     48
   number of dos      NEDOS =    301   number of ions     NIONS =     12
   non local maximal  LDIM  =      4   non local SUM 2l+1 LMDIM =      8
   total plane-waves  NPLWV = ******
   max r-space proj   IRMAX =   1363   max aug-charges    IRDMAX=   3523
   dimension x,y,z NGX =    96 NGY =   96 NGZ =  224
   dimension x,y,z NGXF=   192 NGYF=  192 NGZF=  448
   support grid    NGXF=   192 NGYF=  192 NGZF=  448
   ions per type =               6   1   5
   NGX,Y,Z   is equivalent  to a cutoff of  10.09, 10.09, 10.23 a.u.
   NGXF,Y,Z  is equivalent  to a cutoff of  20.17, 20.17, 20.45 a.u.

 SYSTEM =  unknown system                          
 POSCAR =  C  F  H                                 

 Startparameter for this run:
   NWRITE =      2    write-flag & timer
   PREC   = normal    normal or accurate (medium, high low for compatibility)
   ISTART =      0    job   : 0-new  1-cont  2-samecut
   ICHARG =      2    charge: 1-file 2-atom 10-const
   ISPIN  =      2    spin polarized calculation?
   LNONCOLLINEAR =      F non collinear calculations
   LSORBIT =      F    spin-orbit coupling
   INIWAV =      1    electr: 0-lowe 1-rand  2-diag
   LASPH  =      T    aspherical Exc in radial PAW
 Electronic Relaxation 1
   ENCUT  =  600.0 eV  44.10 Ry    6.64 a.u.  31.60 31.60 72.73*2*pi/ulx,y,z
   ENINI  =  600.0     initial cutoff
   ENAUG  =  644.9 eV  augmentation charge cutoff
   NELM   =   2000;   NELMIN=  2; NELMDL= -5     # of ELM steps 
   EDIFF  = 0.1E-05   stopping-criterion for ELM
   LREAL  =      T    real-space projection
   NLSPLINE    = F    spline interpolate recip. space projectors
   LCOMPAT=      F    compatible to vasp.4.4
   GGA_COMPAT  = T    GGA compatible to vasp.4.4-vasp.4.6
   LMAXPAW     = -100 max onsite density
   LMAXMIX     =    2 max onsite mixed and CHGCAR
   VOSKOWN=      0    Vosko Wilk Nusair interpolation
   ROPT   =   -0.00050  -0.00050  -0.00050
 Ionic relaxation
   EDIFFG = -.1E-01   stopping-criterion for IOM
   NSW    =   5000    number of steps for IOM
   NBLOCK =      1;   KBLOCK =   5000    inner block; outer block 
   IBRION =      2    ionic relax: 0-MD 1-quasi-New 2-CG
   NFREE  =      1    steps in history (QN), initial steepest desc. (CG)
   ISIF   =      2    stress and relaxation
   IWAVPR =     11    prediction:  0-non 1-charg 2-wave 3-comb
   ISYM   =      2    0-nonsym 1-usesym 2-fastsym
   LCORR  =      T    Harris-Foulkes like correction to forces

   POTIM  = 0.5000    time-step for ionic-motion
   TEIN   =    0.0    initial temperature
   TEBEG  =    0.0;   TEEND  =   0.0 temperature during run
   SMASS  =  -3.00    Nose mass-parameter (am)
   estimated Nose-frequenzy (Omega)   =  0.10E-29 period in steps = 0.13E+47 mass=  -0.572E-26a.u.
   SCALEE = 1.0000    scale energy and forces
   NPACO  =    256;   APACO  = 10.0  distance and # of slots for P.C.
   PSTRESS=    0.0 pullay stress

  Mass of Ions in am
   POMASS =  12.01 19.00  1.00
  Ionic Valenz
   ZVAL   =   4.00  7.00  1.00
  Atomic Wigner-Seitz radii
   RWIGS  =  -1.00 -1.00 -1.00
  virtual crystal weights 
   VCA    =   1.00  1.00  1.00
   NELECT =      36.0000    total number of electrons
   NUPDOWN=      -1.0000    fix difference up-down

 DOS related values:
   EMIN   =  10.00;   EMAX   =-10.00  energy-range for DOS
   EFERMI =   0.00
   ISMEAR =     0;   SIGMA  =   0.05  broadening in eV -4-tet -1-fermi 0-gaus

 Electronic relaxation 2 (details)
   IALGO  =     38    algorithm
   LDIAG  =      T    sub-space diagonalisation (order eigenvalues)
   LSUBROT=      F    optimize rotation matrix (better conditioning)
   TURBO    =      0    0=normal 1=particle mesh
   IRESTART =      0    0=no restart 2=restart with 2 vectors
   NREBOOT  =      0    no. of reboots
   NMIN     =      0    reboot dimension
   EREF     =   0.00    reference energy to select bands
   IMIX   =      4    mixing-type and parameters
     AMIX     =   0.40;   BMIX     =  1.00
     AMIX_MAG =   1.60;   BMIX_MAG =  1.00
     AMIN     =   0.10
     WC   =   100.;   INIMIX=   1;  MIXPRE=   1;  MAXMIX= -45

 Intra band minimization:
   WEIMIN = 0.0010     energy-eigenvalue tresh-hold
   EBREAK =  0.52E-08  absolut break condition
   DEPER  =   0.30     relativ break condition  

   TIME   =   0.40     timestep for ELM

  volume/ion in A,a.u.               =     658.00      4440.38
  Fermi-wavevector in a.u.,A,eV,Ry     =   0.271461  0.512987  1.002627  0.073691
  Thomas-Fermi vector in A             =   1.110983
 
 Write flags
   LWAVE        =      F    write WAVECAR
   LDOWNSAMPLE  =      F    k-point downsampling of WAVECAR
   LCHARG       =      F    write CHGCAR
   LVTOT        =      F    write LOCPOT, total local potential
   LVHAR        =      F    write LOCPOT, Hartree potential only
   LELF         =      F    write electronic localiz. function (ELF)
   LORBIT       =      0    0 simple, 1 ext, 2 COOP (PROOUT), +10 PAW based schemes


 Dipole corrections
   LMONO  =      F    monopole corrections only (constant potential shift)
   LDIPOL =      F    correct potential (dipole corrections)
   IDIPOL =      0    1-x, 2-y, 3-z, 4-all directions 
   EPSILON=  1.0000000 bulk dielectric constant

 Exchange correlation treatment:
   GGA     =    MK    GGA type
   LEXCH   =    43    internal setting for exchange type
   LIBXC   =     F    Libxc                    
   VOSKOWN =     0    Vosko Wilk Nusair interpolation
   LHFCALC =     F    Hartree Fock is set to
   LHFONE  =     F    Hartree Fock one center treatment
   AEXX    =    0.0000 exact exchange contribution

 vdW DFT:
   LUSE_VDW   =     T    switch on vdW DFT
   Zab_VDW    =-.8491    correlation parameter
   PARAM1     =0.1234
   PARAM2     =1.0000
   PARAM3     =0.0000
   -- rVV10 --
   BPARAM     = 6.3000
   CPARAM     = 0.0093

 Linear response parameters
   LEPSILON=     F    determine dielectric tensor
   LRPA    =     F    only Hartree local field effects (RPA)
   LNABLA  =     F    use nabla operator in PAW spheres
   LVEL    =     F    velocity operator in full k-point grid
   CSHIFT  =0.1000    complex shift for real part using Kramers Kronig
   OMEGAMAX=  -1.0    maximum frequency
   DEG_THRESHOLD= 0.2000000E-02 threshold for treating states as degnerate
   RTIME   =   -0.100 relaxation time in fs
  (WPLASMAI=    0.000 imaginary part of plasma frequency in eV, 0.658/RTIME)
   DFIELD  = 0.0000000 0.0000000 0.0000000 field for delta impulse in time
 
  Optional k-point grid parameters
   LKPOINTS_OPT  =     F    use optional k-point grid
   KPOINTS_OPT_MODE=     1    mode for optional k-point grid
 
 Orbital magnetization related:
   ORBITALMAG=     F  switch on orbital magnetization
   LCHIMAG   =     F  perturbation theory with respect to B field
   DQ        =  0.001000  dq finite difference perturbation B field
   LLRAUG    =     F  two centre corrections for induced B field



--------------------------------------------------------------------------------------------------------


 conjugate gradient relaxation of ions
 charge density and potential will be updated during run
 spin polarized calculation
 Variant of blocked Davidson
 Davidson routine will perform the subspace rotation
 perform sub-space diagonalisation
    after iterative eigenvector-optimisation
 modified Broyden-mixing scheme, WC =      100.0
 initial mixing is a Kerker type mixing with AMIX =  0.4000 and BMIX =      1.0000
 Hartree-type preconditioning will be used
 using additional bands           30
 real space projection scheme for non local part
 use partial core corrections
 calculate Harris-corrections to forces 
   (improved forces if not selfconsistent)
 use gradient corrections 
 use of overlap-Matrix (Vanderbilt PP)
 Gauss-broadening in eV      SIGMA  =   0.05


--------------------------------------------------------------------------------------------------------


  energy-cutoff  :      600.00
  volume of cell :     7895.96
      direct lattice vectors                 reciprocal lattice vectors
     7.911398535-13.702944222  0.000000000     0.063199951 -0.036488509  0.000000000
     7.911398535 13.702944222  0.000000000     0.063199951  0.036488509  0.000000000
     0.000000000  0.000000000 36.417313048     0.000000000  0.000000000  0.027459467

  length of vectors
    15.822797071 15.822797071 36.417313048     0.072977017  0.072977017  0.027459467


 
 k-points in units of 2pi/SCALE and weight: K-Points                                
   0.00000000  0.00000000  0.00000000       1.000
 
 k-points in reciprocal lattice and weights: K-Points                                
   0.00000000  0.00000000  0.00000000       1.000
 
 position of ions in fractional coordinates (direct lattice) 
   0.51241096  0.51115605  0.48298633
   0.55700070  0.59957720  0.50246432
   0.46854143  0.42253754  0.54078633
   0.55751580  0.59998697  0.54075816
   0.51326393  0.51126555  0.55920677
   0.46821299  0.42281612  0.50245517
   0.51397480  0.51139937  0.59681316
   0.50681739  0.50887491  0.45304801
   0.59180718  0.66891345  0.48765660
   0.59194417  0.66815103  0.55625062
   0.43435841  0.35434656  0.55625864
   0.43294396  0.35336829  0.48775354
 
 position of ions in cartesian coordinates  (Angst):
   8.09784660 -0.01719598 17.58906436
   9.15014873  0.58342337 18.29840027
   7.04968085 -0.63038882 19.69398515
   9.15746577  0.58198010 19.69295913
   8.10546106 -0.02738372 20.36480796
   7.04928641 -0.62207086 18.29806724
   8.11214372 -0.03529102 21.73433161
   8.03554654  0.02819403 16.49879116
   9.97406333  1.05658301 17.75914316
   9.96911531  1.04425843 20.25715311
   6.23975932 -1.09639799 20.25744488
   6.22082957 -1.09042095 17.76267353
 


--------------------------------------------------------------------------------------------------------


 use parallel FFT for orbitals z direction half grid
 k-point   1 :   0.0000 0.0000 0.0000  plane waves:  131815

 maximum and minimum number of plane-waves per node :     32957    32949

 maximum number of plane-waves:    131815
 maximum index in each direction: 
   IXMAX=   31   IYMAX=   31   IZMAX=   72
   IXMIN=  -31   IYMIN=  -31   IZMIN=    0


 real space projection operators:
  total allocation   :        760.16 KBytes
  max/ min on nodes  :        193.69        186.98


 parallel 3D FFT for wavefunctions:
    minimum data exchange during FFTs selected (reduces bandwidth)
 parallel 3D FFT for charge:
    minimum data exchange during FFTs selected (reduces bandwidth)


 total amount of memory used by VASP MPI-rank0    94402. kBytes
=======================================================================

   base      :      30000. kBytes
   nonlr-proj:        234. kBytes
   fftplans  :      14145. kBytes
   grid      :      48958. kBytes
   one-center:          9. kBytes
   wavefun   :       1056. kBytes
 
     INWAV:  cpu time      0.0005: real time      0.0006
 Broyden mixing: mesh for mixing (old mesh)
   NGX = 63   NGY = 63   NGZ =145
  (NGX  =192   NGY  =192   NGZ  =448)
  gives a total of 575505 points

 initial charge density was supplied:
 charge density of overlapping atoms calculated
 number of electron      36.0000000 magnetization      12.0000000
 keeping initial charge density in first step


--------------------------------------------------------------------------------------------------------


 Maximum index for non-local projection operator          325
 Maximum index for augmentation-charges            0 (set IRDMAX)


--------------------------------------------------------------------------------------------------------


 First call to EWALD:  gamma=   0.089
 Maximum number of real-space cells 4x 4x 2
 Maximum number of reciprocal cells 2x 2x 5

    FEWALD:  cpu time      0.0073: real time      0.0073


--------------------------------------- Iteration      1(   1)  ---------------------------------------


vdW kernel read from vdw_kernel.bindat
  0.0000  0.2424  0.5071  0.7962  1.1119  1.4567  1.8333  2.2446  2.6937  3.1842
  3.7199  4.3049  4.9438  5.6415  6.4036  7.2358  8.1446  9.1372 10.2212 11.4050
 12.6979 14.1099 15.6519 17.3360 19.1751 21.1837 23.3773 25.7729 28.3892 31.2465
 34.3669 37.7748 41.4965 45.5611 50.0000
 
    POTLOK:  cpu time      5.1468: real time      5.2124
    SETDIJ:  cpu time      1.3068: real time      1.3072
     EDDAV:  cpu time      0.7621: real time      0.7991
       DOS:  cpu time      0.0048: real time      0.0050
    --------------------------------------------
      LOOP:  cpu time      7.2206: real time      7.3238

 eigenvalue-minimisations  :   288
 total energy-change (2. order) : 0.2669712E+03  (-0.9148364E+03)
 number of electron      36.0000000 magnetization      12.0000000
 augmentation part       36.0000000 magnetization      12.0000000

 Free energy of the ion-electron system (eV)
  ---------------------------------------------------
  alpha Z        PSCENC =         0.73172593
  Ewald energy   TEWEN  =      2865.93879612
  -Hartree energ DENC   =     -4042.56809943
  -exchange      EXHF   =         0.00000000
  -V(xc)+E(xc)   XCENC  =       129.05243616
  PAW double counting   =      1200.58992581    -1206.40706260
  entropy T*S    EENTRO =        -0.02873050
  eigenvalues    EBANDS =      -292.91845541
  atomic energy  EATOM  =      1612.58067861
  Solvation  Ediel_sol  =         0.00000000
  ---------------------------------------------------
  free energy    TOTEN  =       266.97121468 eV

  energy without entropy =      266.99994518  energy(sigma->0) =      266.98557993


--------------------------------------------------------------------------------------------------------




--------------------------------------- Iteration      1(   2)  ---------------------------------------


     EDDAV:  cpu time      0.9125: real time      0.9414
       DOS:  cpu time      0.0012: real time      0.0012
    --------------------------------------------
      LOOP:  cpu time      0.9137: real time      0.9425

 eigenvalue-minimisations  :   384
 total energy-change (2. order) :-0.3052788E+03  (-0.2969720E+03)
 number of electron      36.0000000 magnetization      12.0000000
 augmentation part       36.0000000 magnetization      12.0000000

 Free energy of the ion-electron system (eV)
  ---------------------------------------------------
  alpha Z        PSCENC =         0.73172593
  Ewald energy   TEWEN  =      2865.93879612
  -Hartree energ DENC   =     -4042.56809943
  -exchange      EXHF   =         0.00000000
  -V(xc)+E(xc)   XCENC  =       129.05243616
  PAW double counting   =      1200.58992581    -1206.40706260
  entropy T*S    EENTRO =        -0.00000000
  eigenvalues    EBANDS =      -598.22601423
  atomic energy  EATOM  =      1612.58067861
  Solvation  Ediel_sol  =         0.00000000
  ---------------------------------------------------
  free energy    TOTEN  =       -38.30761365 eV

  energy without entropy =      -38.30761365  energy(sigma->0) =      -38.30761365


--------------------------------------------------------------------------------------------------------




--------------------------------------- Iteration      1(   3)  ---------------------------------------


     EDDAV:  cpu time      0.7649: real time      0.7654
       DOS:  cpu time      0.0011: real time      0.0011
    --------------------------------------------
      LOOP:  cpu time      0.7660: real time      0.7664

 eigenvalue-minimisations  :   336
 total energy-change (2. order) :-0.2727175E+02  (-0.2727175E+02)
 number of electron      36.0000000 magnetization      12.0000000
 augmentation part       36.0000000 magnetization      12.0000000

 Free energy of the ion-electron system (eV)
  ---------------------------------------------------
  alpha Z        PSCENC =         0.73172593
  Ewald energy   TEWEN  =      2865.93879612
  -Hartree energ DENC   =     -4042.56809943
  -exchange      EXHF   =         0.00000000
  -V(xc)+E(xc)   XCENC  =       129.05243616
  PAW double counting   =      1200.58992581    -1206.40706260
  entropy T*S    EENTRO =        -0.00000000
  eigenvalues    EBANDS =      -625.49776217
  atomic energy  EATOM  =      1612.58067861
  Solvation  Ediel_sol  =         0.00000000
  ---------------------------------------------------
  free energy    TOTEN  =       -65.57936158 eV

  energy without entropy =      -65.57936158  energy(sigma->0) =      -65.57936158


--------------------------------------------------------------------------------------------------------




--------------------------------------- Iteration      1(   4)  ---------------------------------------


     EDDAV:  cpu time      0.5483: real time      0.5726
       DOS:  cpu time      0.0010: real time      0.0010
    --------------------------------------------
      LOOP:  cpu time      0.5493: real time      0.5736

 eigenvalue-minimisations  :   240
 total energy-change (2. order) :-0.1067476E+00  (-0.1067476E+00)
 number of electron      36.0000000 magnetization      12.0000000
 augmentation part       36.0000000 magnetization      12.0000000

 Free energy of the ion-electron system (eV)
  ---------------------------------------------------
  alpha Z        PSCENC =         0.73172593
  Ewald energy   TEWEN  =      2865.93879612
  -Hartree energ DENC   =     -4042.56809943
  -exchange      EXHF   =         0.00000000
  -V(xc)+E(xc)   XCENC  =       129.05243616
  PAW double counting   =      1200.58992581    -1206.40706260
  entropy T*S    EENTRO =        -0.00000000
  eigenvalues    EBANDS =      -625.60450975
  atomic energy  EATOM  =      1612.58067861
  Solvation  Ediel_sol  =         0.00000000
  ---------------------------------------------------
  free energy    TOTEN  =       -65.68610916 eV

  energy without entropy =      -65.68610916  energy(sigma->0) =      -65.68610916


--------------------------------------------------------------------------------------------------------




--------------------------------------- Iteration      1(   5)  ---------------------------------------


     EDDAV:  cpu time      0.6451: real time      0.6715
       DOS:  cpu time      0.0012: real time      0.0012
    CHARGE:  cpu time      0.1771: real time      0.1773
    MIXING:  cpu time      0.0233: real time      0.0236
    --------------------------------------------
      LOOP:  cpu time      0.8468: real time      0.8736

 eigenvalue-minimisations  :   288
 total energy-change (2. order) :-0.4525872E-03  (-0.4525873E-03)
 number of electron      36.0000000 magnetization      11.4449834
 augmentation part        2.0786613 magnetization      11.4697387

 Broyden mixing:
  rms(total) = 0.23158E+01    rms(broyden)= 0.23155E+01
  rms(prec ) = 0.23424E+01
  weight for this iteration     100.00

 Free energy of the ion-electron system (eV)
  ---------------------------------------------------
  alpha Z        PSCENC =         0.73172593
  Ewald energy   TEWEN  =      2865.93879612
  -Hartree energ DENC   =     -4042.56809943
  -exchange      EXHF   =         0.00000000
  -V(xc)+E(xc)   XCENC  =       129.05243616
  PAW double counting   =      1200.58992581    -1206.40706260
  entropy T*S    EENTRO =        -0.00000000
  eigenvalues    EBANDS =      -625.60496233
  atomic energy  EATOM  =      1612.58067861
  Solvation  Ediel_sol  =         0.00000000
  ---------------------------------------------------
  free energy    TOTEN  =       -65.68656174 eV

  energy without entropy =      -65.68656174  energy(sigma->0) =      -65.68656174


--------------------------------------------------------------------------------------------------------




--------------------------------------- Iteration      1(   6)  ---------------------------------------


    POTLOK:  cpu time      3.9408: real time      3.9636
    SETDIJ:  cpu time      1.3039: real time      1.3041
     EDDAV:  cpu time      0.6932: real time      0.6931
       DOS:  cpu time      0.0010: real time      0.0010
    CHARGE:  cpu time      0.1666: real time      0.1666
    MIXING:  cpu time      0.0172: real time      0.0243
    --------------------------------------------
      LOOP:  cpu time      6.1227: real time      6.1529

 eigenvalue-minimisations  :   288
 total energy-change (2. order) : 0.2986914E+01  (-0.2306376E+01)
 number of electron      36.0000001 magnetization      10.9090718
 augmentation part        2.0086996 magnetization      10.8624373

 Broyden mixing:
  rms(total) = 0.10334E+01    rms(broyden)= 0.10333E+01
  rms(prec ) = 0.10460E+01
  weight for this iteration     100.00

 eigenvalues of (default mixing * dielectric matrix)
  average eigenvalue GAMMA=   0.8832
  0.8832

 Free energy of the ion-electron system (eV)
  ---------------------------------------------------
  alpha Z        PSCENC =         0.73172593
  Ewald energy   TEWEN  =      2865.93879612
  -Hartree energ DENC   =     -4106.82927045
  -exchange      EXHF   =         0.00000000
  -V(xc)+E(xc)   XCENC  =       133.02702304
  PAW double counting   =      1811.91078732    -1818.38543287
  entropy T*S    EENTRO =        -0.00000000
  eigenvalues    EBANDS =      -561.67395542
  atomic energy  EATOM  =      1612.58067861
  Solvation  Ediel_sol  =         0.00000000
  ---------------------------------------------------
  free energy    TOTEN  =       -62.69964773 eV

  energy without entropy =      -62.69964773  energy(sigma->0) =      -62.69964773


--------------------------------------------------------------------------------------------------------




--------------------------------------- Iteration      1(   7)  ---------------------------------------


    POTLOK:  cpu time      3.8941: real time      3.8950
    SETDIJ:  cpu time      1.3017: real time      1.3018
     EDDAV:  cpu time      0.8569: real time      0.8569
       DOS:  cpu time      0.0011: real time      0.0011
    CHARGE:  cpu time      0.1737: real time      0.1740
    MIXING:  cpu time      0.0142: real time      0.0150
    --------------------------------------------
      LOOP:  cpu time      6.2417: real time      6.2438

 eigenvalue-minimisations  :   384
 total energy-change (2. order) :-0.2085969E+01  (-0.3393755E+00)
 number of electron      36.0000001 magnetization      10.1003791
 augmentation part        1.9770614 magnetization      10.0856806

 Broyden mixing:
  rms(total) = 0.61404E+00    rms(broyden)= 0.61403E+00
  rms(prec ) = 0.62014E+00
  weight for this iteration     100.00

 eigenvalues of (default mixing * dielectric matrix)
  average eigenvalue GAMMA=   1.1492
  0.8109  1.4875

 Free energy of the ion-electron system (eV)
  ---------------------------------------------------
  alpha Z        PSCENC =         0.73172593
  Ewald energy   TEWEN  =      2865.93879612
  -Hartree energ DENC   =     -4139.09001391
  -exchange      EXHF   =         0.00000000
  -V(xc)+E(xc)   XCENC  =       132.29037231
  PAW double counting   =      2283.64388903    -2290.27582693
  entropy T*S    EENTRO =        -0.00000000
  eigenvalues    EBANDS =      -530.60523818
  atomic energy  EATOM  =      1612.58067861
  Solvation  Ediel_sol  =         0.00000000
  ---------------------------------------------------
  free energy    TOTEN  =       -64.78561703 eV

  energy without entropy =      -64.78561703  energy(sigma->0) =      -64.78561703


--------------------------------------------------------------------------------------------------------




--------------------------------------- Iteration      1(   8)  ---------------------------------------


    POTLOK:  cpu time      3.8495: real time      3.8710
    SETDIJ:  cpu time      1.3025: real time      1.3026
     EDDAV:  cpu time      0.8618: real time      0.8619
       DOS:  cpu time      0.0027: real time      0.0027
    CHARGE:  cpu time      0.1709: real time      0.1710
    MIXING:  cpu time      0.0151: real time      0.0151
    --------------------------------------------
      LOOP:  cpu time      6.2025: real time      6.2242

 eigenvalue-minimisations  :   384
 total energy-change (2. order) :-0.6493332E+00  (-0.9970514E-01)
 number of electron      36.0000001 magnetization       9.4029379
 augmentation part        1.9530774 magnetization       9.3941744

 Broyden mixing:
  rms(total) = 0.30061E+00    rms(broyden)= 0.30060E+00
  rms(prec ) = 0.30258E+00
  weight for this iteration     100.00

 eigenvalues of (default mixing * dielectric matrix)
  average eigenvalue GAMMA=   1.2523
  2.0829  0.9407  0.7332

 Free energy of the ion-electron system (eV)
  ---------------------------------------------------
  alpha Z        PSCENC =         0.73172593
  Ewald energy   TEWEN  =      2865.93879612
  -Hartree energ DENC   =     -4167.96044020
  -exchange      EXHF   =         0.00000000
  -V(xc)+E(xc)   XCENC  =       132.95242179
  PAW double counting   =      2851.31913301    -2857.99773774
  entropy T*S    EENTRO =        -0.00000000
  eigenvalues    EBANDS =      -502.99952772
  atomic energy  EATOM  =      1612.58067861
  Solvation  Ediel_sol  =         0.00000000
  ---------------------------------------------------
  free energy    TOTEN  =       -65.43495021 eV

  energy without entropy =      -65.43495021  energy(sigma->0) =      -65.43495021


--------------------------------------------------------------------------------------------------------




--------------------------------------- Iteration      1(   9)  ---------------------------------------


    POTLOK:  cpu time      4.0579: real time      4.0803
    SETDIJ:  cpu time      1.3021: real time      1.3021
     EDDAV:  cpu time      0.6503: real time      0.6504
       DOS:  cpu time      0.0011: real time      0.0011
    CHARGE:  cpu time      0.1752: real time      0.1752
    MIXING:  cpu time      0.0160: real time      0.0160
    --------------------------------------------
      LOOP:  cpu time      6.2027: real time      6.2252

 eigenvalue-minimisations  :   288
 total energy-change (2. order) :-0.3480976E+00  (-0.8573899E-02)
 number of electron      36.0000001 magnetization       8.7905545
 augmentation part        1.9490227 magnetization       8.7836690

 Broyden mixing:
  rms(total) = 0.19065E+00    rms(broyden)= 0.19065E+00
  rms(prec ) = 0.19183E+00
  weight for this iteration     100.00

 eigenvalues of (default mixing * dielectric matrix)
  average eigenvalue GAMMA=   1.2870
  2.3601  1.2972  0.8277  0.6631

 Free energy of the ion-electron system (eV)
  ---------------------------------------------------
  alpha Z        PSCENC =         0.73172593
  Ewald energy   TEWEN  =      2865.93879612
  -Hartree energ DENC   =     -4177.96493778
  -exchange      EXHF   =         0.00000000
  -V(xc)+E(xc)   XCENC  =       133.08337312
  PAW double counting   =      3083.45004731    -3090.05686062
  entropy T*S    EENTRO =        -0.00000000
  eigenvalues    EBANDS =      -493.54587045
  atomic energy  EATOM  =      1612.58067861
  Solvation  Ediel_sol  =         0.00000000
  ---------------------------------------------------
  free energy    TOTEN  =       -65.78304777 eV

  energy without entropy =      -65.78304777  energy(sigma->0) =      -65.78304777


--------------------------------------------------------------------------------------------------------




--------------------------------------- Iteration      1(  10)  ---------------------------------------


    POTLOK:  cpu time      3.8662: real time      3.8875
    SETDIJ:  cpu time      1.3259: real time      1.3260
     EDDAV:  cpu time      0.6734: real time      0.6735
       DOS:  cpu time      0.0057: real time      0.0057
    CHARGE:  cpu time      0.1747: real time      0.1747
    MIXING:  cpu time      0.0183: real time      0.0183
    --------------------------------------------
      LOOP:  cpu time      6.0642: real time      6.0857

 eigenvalue-minimisations  :   288
 total energy-change (2. order) :-0.2221103E+00  (-0.1762719E-02)
 number of electron      36.0000001 magnetization       7.9717575
 augmentation part        1.9498020 magnetization       7.9685419

 Broyden mixing:
  rms(total) = 0.14907E+00    rms(broyden)= 0.14907E+00
  rms(prec ) = 0.14990E+00
  weight for this iteration     100.00

 eigenvalues of (default mixing * dielectric matrix)
  average eigenvalue GAMMA=   1.2914
  2.4802  1.5958  0.9292  0.8171  0.6345

 Free energy of the ion-electron system (eV)
  ---------------------------------------------------
  alpha Z        PSCENC =         0.73172593
  Ewald energy   TEWEN  =      2865.93879612
  -Hartree energ DENC   =     -4181.73105302
  -exchange      EXHF   =         0.00000000
  -V(xc)+E(xc)   XCENC  =       132.98584873
  PAW double counting   =      3132.21383417    -3138.76115481
  entropy T*S    EENTRO =        -0.00000000
  eigenvalues    EBANDS =      -489.96383382
  atomic energy  EATOM  =      1612.58067861
  Solvation  Ediel_sol  =         0.00000000
  ---------------------------------------------------
  free energy    TOTEN  =       -66.00515811 eV

  energy without entropy =      -66.00515811  energy(sigma->0) =      -66.00515811


--------------------------------------------------------------------------------------------------------




--------------------------------------- Iteration      1(  11)  ---------------------------------------


    POTLOK:  cpu time      3.8957: real time      3.8967
    SETDIJ:  cpu time      1.3051: real time      1.3051
     EDDAV:  cpu time      0.4497: real time      0.4499
       DOS:  cpu time      0.0011: real time      0.0012
    CHARGE:  cpu time      0.1744: real time      0.1744
    MIXING:  cpu time      0.0232: real time      0.0232
    --------------------------------------------
      LOOP:  cpu time      5.8494: real time      5.8505

 eigenvalue-minimisations  :   192
 total energy-change (2. order) :-0.1592063E+00  (-0.1013094E-02)
 number of electron      36.0000001 magnetization       6.5674906
 augmentation part        1.9499098 magnetization       6.5647915

 Broyden mixing:
  rms(total) = 0.12158E+00    rms(broyden)= 0.12158E+00
  rms(prec ) = 0.12206E+00
  weight for this iteration     100.00

 eigenvalues of (default mixing * dielectric matrix)
  average eigenvalue GAMMA=   1.4539
  3.0239  2.2258  1.2593  0.8422  0.7480  0.6239

 Free energy of the ion-electron system (eV)
  ---------------------------------------------------
  alpha Z        PSCENC =         0.73172593
  Ewald energy   TEWEN  =      2865.93879612
  -Hartree energ DENC   =     -4185.78444026
  -exchange      EXHF   =         0.00000000
  -V(xc)+E(xc)   XCENC  =       132.90631166
  PAW double counting   =      3124.87166938    -3131.38902383
  entropy T*S    EENTRO =        -0.00000000
  eigenvalues    EBANDS =      -486.02008197
  atomic energy  EATOM  =      1612.58067861
  Solvation  Ediel_sol  =         0.00000000
  ---------------------------------------------------
  free energy    TOTEN  =       -66.16436437 eV

  energy without entropy =      -66.16436437  energy(sigma->0) =      -66.16436437


--------------------------------------------------------------------------------------------------------




--------------------------------------- Iteration      1(  12)  ---------------------------------------


    POTLOK:  cpu time      4.3248: real time      4.3256
    SETDIJ:  cpu time      1.3089: real time      1.3090
     EDDAV:  cpu time      0.7575: real time      0.7575
       DOS:  cpu time      0.0013: real time      0.0013
    CHARGE:  cpu time      0.1751: real time      0.1754
    MIXING:  cpu time      0.0205: real time      0.0204
    --------------------------------------------
      LOOP:  cpu time      6.5880: real time      6.5892

 eigenvalue-minimisations  :   336
 total energy-change (2. order) :-0.1405757E+00  (-0.2347563E-02)
 number of electron      36.0000001 magnetization       5.2588127
 augmentation part        1.9489235 magnetization       5.2576447

 Broyden mixing:
  rms(total) = 0.88895E-01    rms(broyden)= 0.88894E-01
  rms(prec ) = 0.89079E-01
  weight for this iteration     100.00

 eigenvalues of (default mixing * dielectric matrix)
  average eigenvalue GAMMA=   1.6997
  4.8505  2.3637  1.5231  1.0082  0.8196  0.7094  0.6237

 Free energy of the ion-electron system (eV)
  ---------------------------------------------------
  alpha Z        PSCENC =         0.73172593
  Ewald energy   TEWEN  =      2865.93879612
  -Hartree energ DENC   =     -4191.92754536
  -exchange      EXHF   =         0.00000000
  -V(xc)+E(xc)   XCENC  =       132.86454547
  PAW double counting   =      3094.49953939    -3101.00455264
  entropy T*S    EENTRO =        -0.00000000
  eigenvalues    EBANDS =      -479.98812754
  atomic energy  EATOM  =      1612.58067861
  Solvation  Ediel_sol  =         0.00000000
  ---------------------------------------------------
  free energy    TOTEN  =       -66.30494003 eV

  energy without entropy =      -66.30494003  energy(sigma->0) =      -66.30494003


--------------------------------------------------------------------------------------------------------




--------------------------------------- Iteration      1(  13)  ---------------------------------------


    POTLOK:  cpu time      3.8974: real time      3.8982
    SETDIJ:  cpu time      1.3058: real time      1.3058
     EDDAV:  cpu time      0.4399: real time      0.4400
       DOS:  cpu time      0.0012: real time      0.0012
    CHARGE:  cpu time      0.1752: real time      0.1751
    MIXING:  cpu time      0.0213: real time      0.0213
    --------------------------------------------
      LOOP:  cpu time      5.8407: real time      5.8416

 eigenvalue-minimisations  :   192
 total energy-change (2. order) :-0.7009816E-01  (-0.1236302E-02)
 number of electron      36.0000001 magnetization       3.8199450
 augmentation part        1.9479914 magnetization       3.8201194

 Broyden mixing:
  rms(total) = 0.67390E-01    rms(broyden)= 0.67390E-01
  rms(prec ) = 0.67543E-01
  weight for this iteration     100.00

 eigenvalues of (default mixing * dielectric matrix)
  average eigenvalue GAMMA=   1.9190
  6.5848  2.4481  1.9631  1.2963  0.9250  0.8188  0.6917  0.6245

 Free energy of the ion-electron system (eV)
  ---------------------------------------------------
  alpha Z        PSCENC =         0.73172593
  Ewald energy   TEWEN  =      2865.93879612
  -Hartree energ DENC   =     -4196.08659031
  -exchange      EXHF   =         0.00000000
  -V(xc)+E(xc)   XCENC  =       132.86493510
  PAW double counting   =      3071.43854621    -3077.95331374
  entropy T*S    EENTRO =        -0.00000000
  eigenvalues    EBANDS =      -475.88981610
  atomic energy  EATOM  =      1612.58067861
  Solvation  Ediel_sol  =         0.00000000
  ---------------------------------------------------
  free energy    TOTEN  =       -66.37503819 eV

  energy without entropy =      -66.37503819  energy(sigma->0) =      -66.37503819


--------------------------------------------------------------------------------------------------------




--------------------------------------- Iteration      1(  14)  ---------------------------------------


    POTLOK:  cpu time      3.9353: real time      3.9360
    SETDIJ:  cpu time      1.3044: real time      1.3045
     EDDAV:  cpu time      0.4401: real time      0.4401
       DOS:  cpu time      0.0013: real time      0.0013
    CHARGE:  cpu time      0.1753: real time      0.1753
    MIXING:  cpu time      0.0228: real time      0.0228
    --------------------------------------------
      LOOP:  cpu time      5.8795: real time      5.8804

 eigenvalue-minimisations  :   192
 total energy-change (2. order) :-0.5897023E-01  (-0.1304563E-02)
 number of electron      36.0000001 magnetization       2.8881056
 augmentation part        1.9475049 magnetization       2.8882573

 Broyden mixing:
  rms(total) = 0.47471E-01    rms(broyden)= 0.47470E-01
  rms(prec ) = 0.47640E-01
  weight for this iteration     100.00

 eigenvalues of (default mixing * dielectric matrix)
  average eigenvalue GAMMA=   2.1668
  8.7867  2.9271  2.3147  1.4897  1.0201  0.8297  0.8297  0.6790  0.6246

 Free energy of the ion-electron system (eV)
  ---------------------------------------------------
  alpha Z        PSCENC =         0.73172593
  Ewald energy   TEWEN  =      2865.93879612
  -Hartree energ DENC   =     -4197.71483033
  -exchange      EXHF   =         0.00000000
  -V(xc)+E(xc)   XCENC  =       132.82730322
  PAW double counting   =      3067.96129813    -3074.48922744
  entropy T*S    EENTRO =        -0.00000000
  eigenvalues    EBANDS =      -474.26975265
  atomic energy  EATOM  =      1612.58067861
  Solvation  Ediel_sol  =         0.00000000
  ---------------------------------------------------
  free energy    TOTEN  =       -66.43400842 eV

  energy without entropy =      -66.43400842  energy(sigma->0) =      -66.43400842


--------------------------------------------------------------------------------------------------------




--------------------------------------- Iteration      1(  15)  ---------------------------------------


    POTLOK:  cpu time      3.9073: real time      3.9294
    SETDIJ:  cpu time      1.3038: real time      1.3040
     EDDAV:  cpu time      0.6488: real time      0.6489
       DOS:  cpu time      0.0011: real time      0.0011
    CHARGE:  cpu time      0.1743: real time      0.1743
    MIXING:  cpu time      0.0253: real time      0.0253
    --------------------------------------------
      LOOP:  cpu time      6.0606: real time      6.0828

 eigenvalue-minimisations  :   288
 total energy-change (2. order) :-0.2708131E-01  (-0.5213808E-03)
 number of electron      36.0000001 magnetization       2.1569545
 augmentation part        1.9473514 magnetization       2.1567800

 Broyden mixing:
  rms(total) = 0.37002E-01    rms(broyden)= 0.37002E-01
  rms(prec ) = 0.37153E-01
  weight for this iteration     100.00

 eigenvalues of (default mixing * dielectric matrix)
  average eigenvalue GAMMA=   2.2907
 10.4000  3.4294  2.3679  1.6706  1.2108  0.9409  0.8302  0.6243  0.6724  0.7602

 Free energy of the ion-electron system (eV)
  ---------------------------------------------------
  alpha Z        PSCENC =         0.73172593
  Ewald energy   TEWEN  =      2865.93879612
  -Hartree energ DENC   =     -4197.37968648
  -exchange      EXHF   =         0.00000000
  -V(xc)+E(xc)   XCENC  =       132.77938484
  PAW double counting   =      3078.12394449    -3084.65015087
  entropy T*S    EENTRO =        -0.00000000
  eigenvalues    EBANDS =      -474.58578235
  atomic energy  EATOM  =      1612.58067861
  Solvation  Ediel_sol  =         0.00000000
  ---------------------------------------------------
  free energy    TOTEN  =       -66.46108973 eV

  energy without entropy =      -66.46108973  energy(sigma->0) =      -66.46108973


--------------------------------------------------------------------------------------------------------




--------------------------------------- Iteration      1(  16)  ---------------------------------------


    POTLOK:  cpu time      3.8894: real time      3.9127
    SETDIJ:  cpu time      1.3104: real time      1.3105
     EDDAV:  cpu time      0.6496: real time      0.6496
       DOS:  cpu time      0.0011: real time      0.0011
    CHARGE:  cpu time      0.1738: real time      0.1741
    MIXING:  cpu time      0.0261: real time      0.0268
    --------------------------------------------
      LOOP:  cpu time      6.0503: real time      6.0747

 eigenvalue-minimisations  :   288
 total energy-change (2. order) :-0.1200602E-01  (-0.2545576E-03)
 number of electron      36.0000001 magnetization       1.4840742
 augmentation part        1.9474905 magnetization       1.4837277

 Broyden mixing:
  rms(total) = 0.29258E-01    rms(broyden)= 0.29258E-01
  rms(prec ) = 0.29368E-01
  weight for this iteration     100.00

 eigenvalues of (default mixing * dielectric matrix)
  average eigenvalue GAMMA=   2.3850
 11.6164  3.9597  2.3830  2.0531  1.4581  1.0198  0.8710  0.8710  0.7135  0.6247
  0.6650

 Free energy of the ion-electron system (eV)
  ---------------------------------------------------
  alpha Z        PSCENC =         0.73172593
  Ewald energy   TEWEN  =      2865.93879612
  -Hartree energ DENC   =     -4196.45964197
  -exchange      EXHF   =         0.00000000
  -V(xc)+E(xc)   XCENC  =       132.73673831
  PAW double counting   =      3088.63928046    -3095.15856103
  entropy T*S    EENTRO =        -0.00000000
  eigenvalues    EBANDS =      -475.48211217
  atomic energy  EATOM  =      1612.58067861
  Solvation  Ediel_sol  =         0.00000000
  ---------------------------------------------------
  free energy    TOTEN  =       -66.47309575 eV

  energy without entropy =      -66.47309575  energy(sigma->0) =      -66.47309575


--------------------------------------------------------------------------------------------------------




--------------------------------------- Iteration      1(  17)  ---------------------------------------


    POTLOK:  cpu time      3.8677: real time      3.8890
    SETDIJ:  cpu time      1.3086: real time      1.3087
     EDDAV:  cpu time      0.6337: real time      0.6338
       DOS:  cpu time      0.0011: real time      0.0011
    CHARGE:  cpu time      0.1752: real time      0.1755
    MIXING:  cpu time      0.0272: real time      0.0272
    --------------------------------------------
      LOOP:  cpu time      6.0136: real time      6.0353

 eigenvalue-minimisations  :   288
 total energy-change (2. order) :-0.8274381E-02  (-0.1523997E-03)
 number of electron      36.0000001 magnetization       0.8729660
 augmentation part        1.9476883 magnetization       0.8727957

 Broyden mixing:
  rms(total) = 0.21613E-01    rms(broyden)= 0.21613E-01
  rms(prec ) = 0.21696E-01
  weight for this iteration     100.00

 eigenvalues of (default mixing * dielectric matrix)
  average eigenvalue GAMMA=   2.5210
 12.9713  4.8649  2.7019  2.3379  1.6116  1.1523  0.9594  0.8380  0.8380  0.6995
  0.6249  0.6520

 Free energy of the ion-electron system (eV)
  ---------------------------------------------------
  alpha Z        PSCENC =         0.73172593
  Ewald energy   TEWEN  =      2865.93879612
  -Hartree energ DENC   =     -4195.59037171
  -exchange      EXHF   =         0.00000000
  -V(xc)+E(xc)   XCENC  =       132.70810310
  PAW double counting   =      3090.65580614    -3097.17240305
  entropy T*S    EENTRO =        -0.00000000
  eigenvalues    EBANDS =      -476.33370526
  atomic energy  EATOM  =      1612.58067861
  Solvation  Ediel_sol  =         0.00000000
  ---------------------------------------------------
  free energy    TOTEN  =       -66.48137013 eV

  energy without entropy =      -66.48137013  energy(sigma->0) =      -66.48137013


--------------------------------------------------------------------------------------------------------




--------------------------------------- Iteration      1(  18)  ---------------------------------------


    POTLOK:  cpu time      3.8883: real time      3.8889
    SETDIJ:  cpu time      1.3067: real time      1.3068
     EDDAV:  cpu time      0.8549: real time      0.8551
       DOS:  cpu time      0.0011: real time      0.0011
    CHARGE:  cpu time      0.1723: real time      0.1723
    MIXING:  cpu time      0.0292: real time      0.0292
    --------------------------------------------
      LOOP:  cpu time      6.2524: real time      6.2534

 eigenvalue-minimisations  :   384
 total energy-change (2. order) :-0.3120416E-02  (-0.9897805E-04)
 number of electron      36.0000001 magnetization       0.4811703
 augmentation part        1.9477574 magnetization       0.4811080

 Broyden mixing:
  rms(total) = 0.14753E-01    rms(broyden)= 0.14753E-01
  rms(prec ) = 0.14848E-01
  weight for this iteration     100.00

 eigenvalues of (default mixing * dielectric matrix)
  average eigenvalue GAMMA=   2.7248
 14.9757  6.3178  3.1563  2.3296  1.7656  1.3711  0.9831  0.9593  0.8542  0.7577
  0.6917  0.6227  0.6370

 Free energy of the ion-electron system (eV)
  ---------------------------------------------------
  alpha Z        PSCENC =         0.73172593
  Ewald energy   TEWEN  =      2865.93879612
  -Hartree energ DENC   =     -4194.82837082
  -exchange      EXHF   =         0.00000000
  -V(xc)+E(xc)   XCENC  =       132.69718893
  PAW double counting   =      3088.42632085    -3094.94387507
  entropy T*S    EENTRO =        -0.00000000
  eigenvalues    EBANDS =      -477.08695508
  atomic energy  EATOM  =      1612.58067861
  Solvation  Ediel_sol  =         0.00000000
  ---------------------------------------------------
  free energy    TOTEN  =       -66.48449055 eV

  energy without entropy =      -66.48449055  energy(sigma->0) =      -66.48449055


--------------------------------------------------------------------------------------------------------




--------------------------------------- Iteration      1(  19)  ---------------------------------------


    POTLOK:  cpu time      3.8671: real time      3.8882
    SETDIJ:  cpu time      1.3121: real time      1.3122
     EDDAV:  cpu time      0.5368: real time      0.5370
       DOS:  cpu time      0.0015: real time      0.0015
    CHARGE:  cpu time      0.1750: real time      0.1750
    MIXING:  cpu time      0.0310: real time      0.0310
    --------------------------------------------
      LOOP:  cpu time      5.9236: real time      5.9448

 eigenvalue-minimisations  :   240
 total energy-change (2. order) : 0.7665593E-03  (-0.6445686E-04)
 number of electron      36.0000001 magnetization       0.2552636
 augmentation part        1.9476858 magnetization       0.2552752

 Broyden mixing:
  rms(total) = 0.10095E-01    rms(broyden)= 0.10095E-01
  rms(prec ) = 0.10190E-01
  weight for this iteration     100.00

 eigenvalues of (default mixing * dielectric matrix)
  average eigenvalue GAMMA=   2.8694
 16.9331  7.4078  3.3927  2.3196  2.0222  1.5497  1.1474  1.0069  0.8646  0.8646
  0.7257  0.6869  0.6187  0.6311

 Free energy of the ion-electron system (eV)
  ---------------------------------------------------
  alpha Z        PSCENC =         0.73172593
  Ewald energy   TEWEN  =      2865.93879612
  -Hartree energ DENC   =     -4194.36516825
  -exchange      EXHF   =         0.00000000
  -V(xc)+E(xc)   XCENC  =       132.69806944
  PAW double counting   =      3086.07411188    -3092.59373167
  entropy T*S    EENTRO =        -0.00000000
  eigenvalues    EBANDS =      -477.54820604
  atomic energy  EATOM  =      1612.58067861
  Solvation  Ediel_sol  =         0.00000000
  ---------------------------------------------------
  free energy    TOTEN  =       -66.48372399 eV

  energy without entropy =      -66.48372399  energy(sigma->0) =      -66.48372399


--------------------------------------------------------------------------------------------------------




--------------------------------------- Iteration      1(  20)  ---------------------------------------


    POTLOK:  cpu time      3.9395: real time      3.9404
    SETDIJ:  cpu time      1.3112: real time      1.3112
     EDDAV:  cpu time      0.4406: real time      0.4406
       DOS:  cpu time      0.0011: real time      0.0011
    CHARGE:  cpu time      0.1733: real time      0.1734
    MIXING:  cpu time      0.0341: real time      0.0341
    --------------------------------------------
      LOOP:  cpu time      5.8998: real time      5.9008

 eigenvalue-minimisations  :   192
 total energy-change (2. order) :-0.3000369E-03  (-0.3664276E-04)
 number of electron      36.0000001 magnetization       0.1143967
 augmentation part        1.9476106 magnetization       0.1144279

 Broyden mixing:
  rms(total) = 0.68845E-02    rms(broyden)= 0.68837E-02
  rms(prec ) = 0.69652E-02
  weight for this iteration     100.00

 eigenvalues of (default mixing * dielectric matrix)
  average eigenvalue GAMMA=   2.9405
 18.3172  8.0644  3.6468  2.5335  2.2644  1.6387  1.3042  1.0105  1.0105  0.8409
  0.8409  0.7083  0.6822  0.6291  0.6158

 Free energy of the ion-electron system (eV)
  ---------------------------------------------------
  alpha Z        PSCENC =         0.73172593
  Ewald energy   TEWEN  =      2865.93879612
  -Hartree energ DENC   =     -4194.20862424
  -exchange      EXHF   =         0.00000000
  -V(xc)+E(xc)   XCENC  =       132.70014445
  PAW double counting   =      3083.99461878    -3090.51600414
  entropy T*S    EENTRO =        -0.00000000
  eigenvalues    EBANDS =      -477.70535952
  atomic energy  EATOM  =      1612.58067861
  Solvation  Ediel_sol  =         0.00000000
  ---------------------------------------------------
  free energy    TOTEN  =       -66.48402403 eV

  energy without entropy =      -66.48402403  energy(sigma->0) =      -66.48402403


--------------------------------------------------------------------------------------------------------




--------------------------------------- Iteration      1(  21)  ---------------------------------------


    POTLOK:  cpu time      3.8654: real time      3.8890
    SETDIJ:  cpu time      1.3082: real time      1.3082
     EDDAV:  cpu time      0.4481: real time      0.4481
       DOS:  cpu time      0.0030: real time      0.0031
    CHARGE:  cpu time      0.1681: real time      0.1681
    MIXING:  cpu time      0.0486: real time      0.0488
    --------------------------------------------
      LOOP:  cpu time      5.8412: real time      5.8651

 eigenvalue-minimisations  :   192
 total energy-change (2. order) : 0.5488333E-03  (-0.4351352E-04)
 number of electron      36.0000001 magnetization       0.0359980
 augmentation part        1.9477405 magnetization       0.0360495

 Broyden mixing:
  rms(total) = 0.40637E-02    rms(broyden)= 0.40628E-02
  rms(prec ) = 0.41081E-02
  weight for this iteration     100.00

 eigenvalues of (default mixing * dielectric matrix)
  average eigenvalue GAMMA=   3.0577
 19.8093  8.8143  4.3688  3.0153  2.3014  1.8333  1.4867  1.1406  1.0378  0.8721
  0.8721  0.7657  0.6923  0.6724  0.6276  0.6134

 Free energy of the ion-electron system (eV)
  ---------------------------------------------------
  alpha Z        PSCENC =         0.73172593
  Ewald energy   TEWEN  =      2865.93879612
  -Hartree energ DENC   =     -4194.25232171
  -exchange      EXHF   =         0.00000000
  -V(xc)+E(xc)   XCENC  =       132.70146392
  PAW double counting   =      3082.98257195    -3089.50406473
  entropy T*S    EENTRO =        -0.00000000
  eigenvalues    EBANDS =      -477.66232528
  atomic energy  EATOM  =      1612.58067861
  Solvation  Ediel_sol  =         0.00000000
  ---------------------------------------------------
  free energy    TOTEN  =       -66.48347519 eV

  energy without entropy =      -66.48347519  energy(sigma->0) =      -66.48347519


--------------------------------------------------------------------------------------------------------




--------------------------------------- Iteration      1(  22)  ---------------------------------------


    POTLOK:  cpu time      4.2583: real time      4.2591
    SETDIJ:  cpu time      1.3091: real time      1.3091
     EDDAV:  cpu time      0.6498: real time      0.6498
       DOS:  cpu time      0.0011: real time      0.0011
    CHARGE:  cpu time      0.1751: real time      0.1751
    MIXING:  cpu time      0.0374: real time      0.0374
    --------------------------------------------
      LOOP:  cpu time      6.4307: real time      6.4316

 eigenvalue-minimisations  :   288
 total energy-change (2. order) : 0.3874029E-03  (-0.4957556E-04)
 number of electron      36.0000001 magnetization       0.0115114
 augmentation part        1.9477871 magnetization       0.0115463

 Broyden mixing:
  rms(total) = 0.19892E-02    rms(broyden)= 0.19881E-02
  rms(prec ) = 0.20195E-02
  weight for this iteration     100.00

 eigenvalues of (default mixing * dielectric matrix)
  average eigenvalue GAMMA=   3.0933
 20.7891  9.3759  5.0618  3.1826  2.3452  2.0219  1.5207  1.2042  1.0257  1.0257
  0.8650  0.8486  0.7403  0.6763  0.6624  0.6272  0.6132

 Free energy of the ion-electron system (eV)
  ---------------------------------------------------
  alpha Z        PSCENC =         0.73172593
  Ewald energy   TEWEN  =      2865.93879612
  -Hartree energ DENC   =     -4194.34500813
  -exchange      EXHF   =         0.00000000
  -V(xc)+E(xc)   XCENC  =       132.70292629
  PAW double counting   =      3084.08644545    -3090.60734586
  entropy T*S    EENTRO =        -0.00000000
  eigenvalues    EBANDS =      -477.57130619
  atomic energy  EATOM  =      1612.58067861
  Solvation  Ediel_sol  =         0.00000000
  ---------------------------------------------------
  free energy    TOTEN  =       -66.48308779 eV

  energy without entropy =      -66.48308779  energy(sigma->0) =      -66.48308779


--------------------------------------------------------------------------------------------------------




--------------------------------------- Iteration      1(  23)  ---------------------------------------


    POTLOK:  cpu time      3.8934: real time      3.9144
    SETDIJ:  cpu time      1.3066: real time      1.3070
     EDDAV:  cpu time      0.6489: real time      0.6490
       DOS:  cpu time      0.0059: real time      0.0059
    CHARGE:  cpu time      0.1669: real time      0.1669
    MIXING:  cpu time      0.0397: real time      0.0397
    --------------------------------------------
      LOOP:  cpu time      6.0615: real time      6.0830

 eigenvalue-minimisations  :   288
 total energy-change (2. order) :-0.3433375E-03  (-0.1066455E-04)
 number of electron      36.0000001 magnetization       0.0032906
 augmentation part        1.9476817 magnetization       0.0033118

 Broyden mixing:
  rms(total) = 0.98900E-03    rms(broyden)= 0.98791E-03
  rms(prec ) = 0.10173E-02
  weight for this iteration     100.00

 eigenvalues of (default mixing * dielectric matrix)
  average eigenvalue GAMMA=   3.0850
 21.3694  9.7593  5.5443  3.2763  2.4052  2.1734  1.5499  1.4434  1.1401  1.0176
[...]
  251        strkin                                0.024173                           34   3
  252          m_sumb_d                              0.007685                         34   4
  253        strelo                                0.266854                           34   3
  254          m_sumb_d                              0.034247                         68   4
  255        strnlr                               11.879973                           34   3
  256          rspher_all                            0.776700                        306   4
  257          phaser                                0.000151                        306   4
  258          rpro_isp                             10.864474                        306   4
  259            fftwav_mpi                           10.647044                      612   5
  260              fft3d_mpi                             9.227428                    612   6
  261                fftbrc_mpi                            7.618290                  612   7
  262                  fftbas_plan_mpi                       7.616568                612   8
  263                    dfftw_execute                         3.860025             1836   9
  264                    map_forward                           3.379428             1224   9
  265                      map_gather                            0.778124            612  10
  266                      m_alltoallv_z                         0.539479            612  10
  267                      map_scatter                           0.916662            612  10
  268            rpromu                                0.173842                      612   5
  269              rpromu_gemm                           0.048534                   7344   6
  270              m_sumb_d                              0.045412                    612   6
  271          m_sumb_d                              0.222926                         34   4
  272        m_sumb_d                              0.948952                          238   3
  273        fft3d_mpi                            23.317816                         2788   3
  274          fftbrc_mpi                           22.560921                       2788   4
  275            fftbas_plan_mpi                      22.551234                     2788   5
  276              dfftw_execute                         3.861846                   8364   6
  277              map_forward                           9.802827                   2720   6
  278                map_gather                            0.525844                 1360   7
  279                m_alltoallv_z                         8.769288                 1360   7
  280                map_scatter                           0.481260                 1360   7
  281              map_backward                          7.065367                   2856   6
  282                map_gather                            0.410576                 1428   7
  283                m_alltoallv_z                         5.858561                 1428   7
  284                map_scatter                           0.767545                 1428   7
  285        forhar                                1.418554                           68   3
  286          m_sumb_d                              0.040779                         68   4
  287        strehar                               0.219412                           34   3
  288          m_sumb_d                              0.014175                         34   4
  289        chggra                                0.933230                           34   3
  290          fft3d_mpi                             0.723033                        102   4
  291            fftbrc_mpi                            0.693816                      102   5
  292              fftbas_plan_mpi                       0.693485                    102   6
  293                dfftw_execute                         0.143475                  306   7
  294                map_backward                          0.171990                   68   7
  295                  map_gather                            0.010007                 34   8
  296                  m_alltoallv_z                         0.143107                 34   8
  297                  map_scatter                           0.018260                 34   8
  298                map_forward                           0.312682                  136   7
  299                  map_gather                            0.030247                 68   8
  300                  m_alltoallv_z                         0.257765                 68   8
  301                  map_scatter                           0.023215                 68   8
  302          m_sumb_d                              0.005601                         68   4
  303          pothar                                0.045641                         34   4
  304            m_sumb_d                              0.012589                       34   5
  305        brmix                                 0.634115                           34   3
  306          m_sumb_d                              0.020761                        204   4
  307          brpre                                 0.012410                         68   4
  308          setg0                                 0.115159                         34   4
  309          broyd                                 0.304944                         34   4
  310            m_sumb_d                              0.041306                      421   5
  311            brget                                 0.081067                     1414   5
  312            brsav                                 0.025319                      363   5
  313        m_bcast_d                             0.008445                           68   3
  314      potlok                              133.178989                             34   2
  315        fft3d_mpi                            25.172240                         2924   3
  316          fftbrc_mpi                           24.296980                       2924   4
  317            fftbas_plan_mpi                      24.286602                     2924   5
  318              dfftw_execute                         4.207943                   8772   6
  319              map_forward                          11.076231                   2992   6
  320                map_gather                            0.562492                 1564   7
  321                m_alltoallv_z                         9.850329                 1564   7
  322                map_scatter                           0.631932                 1564   7
  323              map_backward                          7.099922                   2856   6
  324                map_gather                            0.401595                 1428   7
  325                m_alltoallv_z                         5.904609                 1428   7
  326                map_scatter                           0.764791                 1428   7
  327        m_sumb_d                              0.951006                          204   3
  328        pothar                                0.043796                           34   3
  329          m_sumb_d                              0.011863                         34   4
  330        m_bcast_d                             0.377763                           68   3
  331      potlok_metagga                        0.000037                             34   2
  332      set_dd_magatom                        0.000038                             34   2
  333      set_dd_paw                           44.372943                             34   2
  334        set_rsgf_all                          0.000064                           34   3
  335        m_sumb_d                             44.367936                          238   3
  336      wavpre_noio                           0.987315                             33   2
  337        stufak                                0.470584                           33   3
  338      densta                                0.000713                              1   2
  339        m_sumb_d                              0.000645                            7   3
 
 Flat profile
 ============
 
             routine name                   CPU           calls
 ---------------------------------------------------------------
 potlok                                809.050744         258
 m_sumb_d                              412.763876       28543
 m_alltoallv_z                         144.640168       33662
 force_and_stress                      106.604343          34
 dfftw_execute                          78.164485       98094
 lapack                                 26.845601        1938
 fft3d_mpi                              25.864525       32698
 map_scatter                            22.105716       33662
 fftbas_plan_mpi                        21.110730       32698
 total_time                             20.436395           1
 m_alltoall_d                           19.417937       14362
 map_gather                             18.221292       33662
 fftwav_mpi                             12.734490        4752
 map_forward                             9.519179       35132
 vhamil                                  6.859690        1938
 orth1                                   6.381773        5426
 elmin                                   5.961118          34
 soft_charge                             4.607696         224
 m_bcast_d                               4.338835        6467
 eddav                                   1.935079         228
 setdij_                                 1.728103        1143
 ggemm                                   1.488050        1938
 forhar                                  1.377774          68
 redis_pw                                1.373378        6406
 brmix                                   1.221634         224
 rspher_all                              1.089087         443
 pw_charge                               1.082251         448
 broyd                                   1.029239         224
 w1_copy                                 1.012069        5814
 eccp                                    1.002143         456
 forloc                                  0.849341          34
 fftext_mpi                              0.831974        1938
 setg0                                   0.817569         292
 augmentation_charge                     0.558857         224
 wavpre_noio                             0.516732          33
 brget                                   0.506349        8852
 stufak                                  0.487967          34
 kinhamil                                0.483678        1938
 m_bcast_z                               0.404148          98
 fft_gq                                  0.380751         224
 racc0                                   0.371137        1938
 map_backward                            0.310944       30264
 apply_precond                           0.284310        1482
 pothar                                  0.276217         292
 rpro1                                   0.260076        1482
 strelo                                  0.232607          34
 strehar                                 0.205237          34
 brsav                                   0.184162        2342
 setup_precond                           0.175260         456
 chggra                                  0.158955          34
 set_charge                              0.158097         224
 redis_proj                              0.144408        7956
 fftbrc_mpi                              0.117133       32698
 rpromu                                  0.115999         884
 brpre                                   0.098095         448
 rpromu_gemm                             0.077867       10608
 rpro_isp                                0.072160         442
 overl                                   0.069412        3488
 lincom                                  0.063732          68
 set_dd_paw                              0.048785         292
 inisym                                  0.045128           1
 rsp                                     0.037129          34
 overl1                                  0.032800        1938
 hamiltmu                                0.032044        1938
 newband                                 0.027722        2394
 choleski                                0.024663          68
 raccmu_                                 0.018767        1938
 densta                                  0.016975         229
 strkin                                  0.016488          34
 strnlr                                  0.015721          34
 depsum                                  0.007966         224
 w1_projall                              0.007796        1482
 brgrid                                  0.007093           1
 orthch                                  0.006078          34
 fewald                                  0.006045          34
 fordep                                  0.004782          34
 fornlr                                  0.004672          34
 truncate_high_frequency_w1              0.002550        2394
 rcp                                     0.002345          34
 proall                                  0.000663          34
 phaser                                  0.000622         898
 set_rsgf_all                            0.000581         292
 potlok_metagga                          0.000393         258
 crpa_reader                             0.000337           1
 set_dd_magatom                          0.000305         292
 vectorpot                               0.000266         225
 rotate_active_occupied_orbital          0.000089          34
 redis_pw_over_bands                     0.000033          34
 posmap                                  0.000026           2
 ---------------------------------------------------------------
  summed up times    1779.54943609238     
 
 Accumulative profile
 ====================
 
             routine name                   CPU           calls
 ---------------------------------------------------------------
 total_time                           1779.549436           1
 elmin                                1374.505153          34
 potlok                               1012.125265         258
 m_sumb_d                              412.763876       28543
 set_dd_paw                            380.631948         292
 fft3d_mpi                             320.054170       32698
 fftbrc_mpi                            294.189645       32698
 fftbas_plan_mpi                       294.072512       32698
 force_and_stress                      203.144783          34
 eddav                                 161.317119         228
 m_alltoallv_z                         144.640168       33662
 map_forward                           121.315505       35132
 fftwav_mpi                             85.610675        4752
 dfftw_execute                          78.164485       98094
 map_backward                           73.481793       30264
 set_charge                             37.305219         224
 soft_charge                            33.136124         224
 hamiltmu                               32.212344        1938
 lapack                                 26.845601        1938
 kinhamil                               24.729632        1938
 fftext_mpi                             24.245955        1938
 map_scatter                            22.105716       33662
 m_alltoall_d                           19.417937       14362
 map_gather                             18.221292       33662
 redis_pw                               16.913321        6406
 rpro_isp                               15.837005         442
 strnlr                                 11.879973          34
 newband                                11.250812        2394
 vhamil                                  6.859690        1938
 orth1                                   6.381773        5426
 fft_gq                                  4.881533         224
 m_bcast_d                               4.338835        6467
 brmix                                   4.308802         224
 fornlr                                  4.068594          34
 redis_proj                              4.022403        7956
 augmentation_charge                     3.704011         224
 setdij_                                 2.787510        1143
 broyd                                   1.989942         224
 ggemm                                   1.488050        1938
 forhar                                  1.418554          68
 proall                                  1.277489          34
 rspher_all                              1.089087         443
 pw_charge                               1.082251         448
 eccp                                    1.031326         456
 w1_copy                                 1.012069        5814
 wavpre_noio                             0.987315          33
 chggra                                  0.933230          34
 forloc                                  0.882308          34
 setg0                                   0.817569         292
 orthch                                  0.679965          34
 raccmu_                                 0.590977        1938
 racc0                                   0.539410        1938
 fordep                                  0.521816          34
 brget                                   0.506349        8852
 stufak                                  0.487967          34
 m_bcast_z                               0.404148          98
 pothar                                  0.402140         292
 w1_projall                              0.382647        1482
 rpro1                                   0.374851        1482
 depsum                                  0.306987         224
 apply_precond                           0.284310        1482
 rpromu                                  0.271912         884
 strelo                                  0.266854          34
 strehar                                 0.219412          34
 setup_precond                           0.199421         456
 brsav                                   0.184162        2342
 densta                                  0.172872         229
 brpre                                   0.098095         448
 rpromu_gemm                             0.077867       10608
 overl                                   0.069412        3488
 lincom                                  0.063732          68
 fewald                                  0.058686          34
 inisym                                  0.045154           1
 rsp                                     0.037129          34
 overl1                                  0.032800        1938
 choleski                                0.024663          68
 strkin                                  0.024173          34
 brgrid                                  0.007093           1
 truncate_high_frequency_w1              0.002550        2394
 rcp                                     0.002345          34
 phaser                                  0.000622         898
 set_rsgf_all                            0.000581         292
 potlok_metagga                          0.000393         258
 crpa_reader                             0.000337           1
 set_dd_magatom                          0.000305         292
 vectorpot                               0.000266         225
 rotate_active_occupied_orbital          0.000089          34
 redis_pw_over_bands                     0.000033          34
 posmap                                  0.000026           2
 ---------------------------------------------------------------
 
Profiling took   0.698360  0.229892  0.007500  0.006878 seconds
Profiling took   0.941630 seconds
