 vasp.6.3.2 27Jun22 (build Jan 03 2024 23:05:41) complex                        
  
 executed on           IFC15_impi date 2024.07.31  01:43:05
 running  768 mpi-ranks, with    1 threads/rank
 distrk:  each k-point on   96 cores,    8 groups
 distr:  one band on NCORE=  16 cores,    6 groups


--------------------------------------------------------------------------------------------------------


 INCAR:
   ENCUT = 600.00
   EDIFF = 1.00e-06
   EDIFFG = -0.01
   IBRION = 2
   ALGO = Normal
   ISMEAR = 0
   SIGMA = 0.05
   LCHARG = .FALSE.
   LWAVE = .FALSE.
   LREAL = Auto
   NELM = 2000
   NSW = 5000
   NCORE = 16
   KPAR = 8
   ISPIN = 2
   GGA = MK
   PARAM1 = 0.1234
   PARAM2 = 1.0
   AGGAC = 0.0
   LUSE_VDW = .TRUE.
   LASPH = .TRUE.
   LDIPOL = .TRUE.
   DIPOL = 0.5 0.5 0.5
   IDIPOL = 3

 POTCAR:    PAW_PBE Mo_sv 02Feb2006               
 POTCAR:    PAW_PBE S 06Sep2000                   
 -----------------------------------------------------------------------------
|                                                                             |
|           W    W    AA    RRRRR   N    N  II  N    N   GGGG   !!!           |
|           W    W   A  A   R    R  NN   N  II  NN   N  G    G  !!!           |
|           W    W  A    A  R    R  N N  N  II  N N  N  G       !!!           |
|           W WW W  AAAAAA  RRRRR   N  N N  II  N  N N  G  GGG   !            |
|           WW  WW  A    A  R   R   N   NN  II  N   NN  G    G                |
|           W    W  A    A  R    R  N    N  II  N    N   GGGG   !!!           |
|                                                                             |
|     You use a magnetic or noncollinear calculation, but did not specify     |
|     the initial magnetic moment with the MAGMOM tag. Note that a            |
|     default of 1 will be used for all atoms. This ferromagnetic setup       |
|     may break the symmetry of the crystal, in particular it may rule        |
|     out finding an antiferromagnetic solution. Thence, we recommend         |
|     setting the initial magnetic moment manually or verifying carefully     |
|     that this magnetic setup is desired.                                    |
|                                                                             |
 -----------------------------------------------------------------------------

 -----------------------------------------------------------------------------
|                                                                             |
|               ----> ADVICE to this user running VASP <----                  |
|                                                                             |
|     You have switched on vdW-DFT.                                           |
|     This routine was written and supplied by Jiri Klimes. We recommend      |
|     that you carefully read and cite the following publications:            |
|       J. Klimes, D.R. Bowler, A. Michelides                                 |
|          J. Phys.: Cond Matt. 22 022201 (2010)                              |
|       J. Klimes, D.R. Bowler, A. Michelides                                 |
|          Phys. Rev. B. 83, 195131 (2011)                                    |
|     and references therein.                                                 |
|                                                                             |
 -----------------------------------------------------------------------------

 POTCAR:    PAW_PBE Mo_sv 02Feb2006               
   SHA256 =  2731df97e41766cc617548c5a8267718fdef1f509ac6bafa01e745abea2bdfaa Mo_sv/POTCAR          
   COPYR  = (c) Copyright 02Feb2006 Georg Kresse                                                    
   COPYR  = This file is part of the software VASP. Any use, copying, and all other rights are regul
   COPYR  = If you do not have a valid VASP license, you may not use, copy or distribute this file. 
   VRHFIN =Mo: 4p5s4d                                                                               
   LEXCH  = PE                                                                                      
   EATOM  =  1862.2866 eV,  136.8742 Ry                                                             
                                                                                                    
   TITEL  = PAW_PBE Mo_sv 02Feb2006                                                                 
   LULTRA =        F    use ultrasoft PP ?                                                          
   IUNSCR =        1    unscreen: 0-lin 1-nonlin 2-no                                               
   RPACOR =    2.200    partial core radius                                                         
   POMASS =   95.940; ZVAL   =   14.000    mass and valenz                                          
   RCORE  =    2.500    outmost cutoff radius                                                       
   RWIGS  =    2.750; RWIGS  =    1.455    wigner-seitz radius (au A)                               
   ENMAX  =  242.676; ENMIN  =  182.007 eV                                                          
   ICORE  =        3    local potential                                                             
   LCOR   =        T    correct aug charges                                                         
   LPAW   =        T    paw PP                                                                      
   EAUG   =  446.014                                                                                
   DEXC   =    0.000                                                                                
   RMAX   =    2.563    core radius for proj-oper                                                   
   RAUG   =    1.300    factor for augmentation sphere                                              
   RDEP   =    2.641    radius for radial grids                                                     
   RDEPT  =    2.031    core radius for aug-charge                                                  
                                                                                                    
   Atomic configuration                                                                             
   11 entries                                                                                       
     n  l   j            E        occ.                                                              
     1  0  0.50    -19819.0341   2.0000                                                             
     2  0  0.50     -2799.0127   2.0000                                                             
     2  1  1.50     -2502.0276   6.0000                                                             
     3  0  0.50      -476.4449   2.0000                                                             
     3  1  1.50      -379.1496   6.0000                                                             
     3  2  2.50      -220.9367  10.0000                                                             
     4  0  0.50       -64.3378   2.0000                                                             
     5  0  0.50        -4.0862   1.0000                                                             
     4  1  1.50       -38.4773   6.0000                                                             
     4  2  2.50        -3.7535   5.0000                                                             
     4  3  2.50        -1.3606   0.0000                                                             
   Description                                                                                      
     l       E           TYP  RCUT    TYP  RCUT                                                     
     0    -64.3377829     23  2.100                                                                 
     0     -4.0861640     23  2.400                                                                 
     1    -38.4772993     23  2.100                                                                 
     1     13.6058260     23  2.100                                                                 
     2     -3.7534941     23  2.400                                                                 
     2     -5.1140767     23  2.400                                                                 
     3     -4.0817478     23  2.500                                                                 
  local pseudopotential read in
  partial core-charges read in
  partial kinetic energy density read in
  atomic valenz-charges read in
  non local Contribution for L=           0  read in
    real space projection operators read in
  non local Contribution for L=           0  read in
    real space projection operators read in
  non local Contribution for L=           1  read in
    real space projection operators read in
  non local Contribution for L=           1  read in
    real space projection operators read in
  non local Contribution for L=           2  read in
    real space projection operators read in
  non local Contribution for L=           2  read in
    real space projection operators read in
    PAW grid and wavefunctions read in
 
   number of l-projection  operators is LMAX  =           6
   number of lm-projection operators is LMMAX =          18
 
 POTCAR:    PAW_PBE S 06Sep2000                   
   SHA256 =  0fc7481fb0695f01bdc6462160264c5c84044ae9ec85a907d398b887a2bc3132 S/POTCAR              
   COPYR  = (c) Copyright 06Sep2000 Georg Kresse                                                    
   COPYR  = This file is part of the software VASP. Any use, copying, and all other rights are regul
   COPYR  = If you do not have a valid VASP license, you may not use, copy or distribute this file. 
   VRHFIN =S : s2p4                                                                                 
   LEXCH  = PE                                                                                      
   EATOM  =   276.8230 eV,   20.3459 Ry                                                             
                                                                                                    
   TITEL  = PAW_PBE S 06Sep2000                                                                     
   LULTRA =        F    use ultrasoft PP ?                                                          
   IUNSCR =        1    unscreen: 0-lin 1-nonlin 2-no                                               
   RPACOR =    1.500    partial core radius                                                         
   POMASS =   32.066; ZVAL   =    6.000    mass and valenz                                          
   RCORE  =    1.900    outmost cutoff radius                                                       
   RWIGS  =    2.200; RWIGS  =    1.164    wigner-seitz radius (au A)                               
   ENMAX  =  258.689; ENMIN  =  194.016 eV                                                          
   ICORE  =        2    local potential                                                             
   LCOR   =        T    correct aug charges                                                         
   LPAW   =        T    paw PP                                                                      
   EAUG   =  335.092                                                                                
   DEXC   =    0.000                                                                                
   RMAX   =    1.942    core radius for proj-oper                                                   
   RAUG   =    1.300    factor for augmentation sphere                                              
   RDEP   =    1.954    radius for radial grids                                                     
   RDEPT  =    1.744    core radius for aug-charge                                                  
                                                                                                    
   Atomic configuration                                                                             
    6 entries                                                                                       
     n  l   j            E        occ.                                                              
     1  0  0.50     -2405.8406   2.0000                                                             
     2  0  0.50      -211.7007   2.0000                                                             
     2  1  1.50      -156.4958   6.0000                                                             
     3  0  0.50       -17.2562   2.0000                                                             
     3  1  0.50        -7.0085   4.0000                                                             
     3  2  1.50        -6.8029   0.0000                                                             
   Description                                                                                      
     l       E           TYP  RCUT    TYP  RCUT                                                     
     0    -17.2561641     23  1.900                                                                 
     0    -15.8743224     23  1.900                                                                 
     1     -7.0085400     23  1.900                                                                 
     1     -2.7779785     23  1.900                                                                 
     2     -6.8029130     23  1.900                                                                 
  local pseudopotential read in
  partial core-charges read in
  partial kinetic energy density read in
  atomic valenz-charges read in
  non local Contribution for L=           0  read in
    real space projection operators read in
  non local Contribution for L=           0  read in
    real space projection operators read in
  non local Contribution for L=           1  read in
    real space projection operators read in
  non local Contribution for L=           1  read in
    real space projection operators read in
    PAW grid and wavefunctions read in
 
   number of l-projection  operators is LMAX  =           4
   number of lm-projection operators is LMMAX =           8
 
 Optimization of the real space projectors (new method)

 maximal supplied QI-value         = 15.12
 optimisation between [QCUT,QGAM] = [ 12.55, 25.10] = [ 44.09,176.36] Ry 
 Optimized for a Real-space Cutoff    1.47 Angstroem

   l    n(q)    QCUT    max X(q) W(low)/X(q) W(high)/X(q)  e(spline) 
   0     11    12.548     3.559    0.18E-04    0.60E-05    0.19E-06
   0     11    12.548    20.730    0.37E-04    0.13E-04    0.98E-07
   1     11    12.548     3.279    0.80E-06    0.70E-06    0.27E-07
   1     11    12.548     4.693    0.72E-04    0.11E-03    0.38E-06
   2     10    12.548    67.616    0.34E-03    0.45E-03    0.54E-06
   2     10    12.548    62.420    0.34E-03    0.45E-03    0.54E-06
 Optimization of the real space projectors (new method)

 maximal supplied QI-value         = 19.84
 optimisation between [QCUT,QGAM] = [ 12.50, 25.00] = [ 43.76,175.03] Ry 
 Optimized for a Real-space Cutoff    1.06 Angstroem

   l    n(q)    QCUT    max X(q) W(low)/X(q) W(high)/X(q)  e(spline) 
   0      8    12.501   187.594    0.26E-03    0.17E-03    0.97E-07
   0      8    12.501   164.243    0.26E-03    0.17E-03    0.96E-07
   1      7    12.501    67.533    0.50E-03    0.61E-03    0.91E-07
   1      7    12.501    50.729    0.48E-03    0.60E-03    0.90E-07
 -----------------------------------------------------------------------------
|                                                                             |
|               ----> ADVICE to this user running VASP <----                  |
|                                                                             |
|     You enforced a specific xc type in the INCAR file but a different       |
|     type was found in the POTCAR file.                                      |
|     I HOPE YOU KNOW WHAT YOU ARE DOING!                                     |
|                                                                             |
 -----------------------------------------------------------------------------

  PAW_PBE Mo_sv 02Feb2006               :
 energy of atom  1       EATOM=-1862.2866
 kinetic energy error for atom=    0.0041 (will be added to EATOM!!)
  PAW_PBE S 06Sep2000                   :
 energy of atom  2       EATOM= -276.8230
 kinetic energy error for atom=    0.0009 (will be added to EATOM!!)
 
 
 POSCAR: Mo S
  positions in cartesian coordinates
  No initial velocities read in
 exchange correlation table for  LEXCH =       43
   RHO(1)=    0.500       N(1)  =     2000
   RHO(2)=  100.500       N(2)  =     4000

 VTST: version 4.1, (05/19/21)

 CHAIN: initializing optimizer
 
 OPT: Using VASP Conjugate-Gradient optimizer
 CHAIN: Read ICHAIN            0
 
 POSCAR: Mo S
  positions in cartesian coordinates
  No initial velocities read in
 


--------------------------------------------------------------------------------------------------------


 ion  position               nearest neighbor table
   1  0.667  0.733  0.500-  36 2.41  64 2.41  40 2.41  37 2.41  65 2.41  39 2.41  11 3.16   3 3.16
                            13 3.16  23 3.16  19 3.16  14 3.16
   2  0.267  0.933  0.500-  70 2.41  47 2.41  51 2.41  71 2.41  48 2.41  49 2.41  25 3.16   4 3.16
                            18 3.16  10 3.16  17 3.16   8 3.16
   3  0.667  0.933  0.500-  36 2.41  66 2.41  33 2.41  37 2.41  45 2.41  32 2.41  10 3.16   1 3.16
                            11 3.16   9 3.16  23 3.16   6 3.16
   4  0.267  0.733  0.500-  52 2.41  70 2.41  68 2.41  46 2.41  71 2.41  69 2.41  18 3.16   2 3.16
                            20 3.16  10 3.16   5 3.16  11 3.16
   5  0.267  0.533  0.500-  60 2.41  57 2.41  68 2.41  67 2.41  58 2.41  69 2.41  20 3.16   7 3.16
                            22 3.16   4 3.16  13 3.16  11 3.16
   6  0.867  0.133  0.500-  35 2.41  33 2.41  29 2.41  30 2.41  32 2.41  42 2.41  23 3.16  24 3.16
                             9 3.16  16 3.16   3 3.16  22 3.16
   7  0.267  0.333  0.500-  55 2.41  60 2.41  50 2.41  56 2.41  67 2.41  59 2.41  22 3.16   5 3.16
                            24 3.16  13 3.16  15 3.16  17 3.16
   8  0.467  0.133  0.500-  72 2.41  61 2.41  51 2.41  73 2.41  49 2.41  62 2.41   9 3.16  12 3.16
                            10 3.16  15 3.16  17 3.16   2 3.16
   9  0.667  0.133  0.500-  33 2.41  26 2.41  72 2.41  32 2.41  28 2.41  73 2.41   8 3.16  10 3.16
                             3 3.16   6 3.16  12 3.16  16 3.16
  10  0.467  0.933  0.500-  66 2.41  70 2.41  72 2.41  45 2.41  71 2.41  73 2.41   3 3.16  11 3.16
                             9 3.16   4 3.16   2 3.16   8 3.16
  11  0.467  0.733  0.500-  64 2.41  66 2.41  68 2.41  65 2.41  45 2.41  69 2.41   1 3.16  10 3.16
                             3 3.16   4 3.16  13 3.16   5 3.16
  12  0.667  0.333  0.500-  44 2.41  61 2.41  26 2.41  43 2.41  62 2.41  28 2.41  15 3.16  14 3.16
                             8 3.16  21 3.16  16 3.16   9 3.16
  13  0.467  0.533  0.500-  60 2.41  64 2.41  63 2.41  65 2.41  67 2.41  14 3.16  15 3.16   1 3.16
                             7 3.16  11 3.16   5 3.16
  14  0.667  0.533  0.500-  44 2.41  40 2.41  43 2.41  39 2.41  63 2.41  13 3.16  12 3.16  15 3.16
                            21 3.16   1 3.16  19 3.16
  15  0.467  0.333  0.500-  61 2.41  50 2.41  62 2.41  59 2.41  63 2.41  12 3.16  13 3.16  14 3.16
                             7 3.16   8 3.16  17 3.16
  16  0.867  0.333  0.500-  29 2.41  26 2.41  38 2.41  42 2.41  41 2.41  28 2.41  21 3.16  20 3.16
                             6 3.16  12 3.16  22 3.16   9 3.16
  17  0.267  0.133  0.500-  51 2.41  50 2.41  53 2.41  49 2.41  54 2.41  59 2.41  24 3.16  25 3.16
                             8 3.16   2 3.16   7 3.16  15 3.16
  18  0.067  0.733  0.500-  52 2.41  47 2.41  31 2.41  46 2.41  48 2.41  27 2.41   4 3.16  25 3.16
                             2 3.16  20 3.16  19 3.16  21 3.16
  19  0.867  0.733  0.500-  31 2.41  34 2.41  40 2.41  27 2.41  39 2.41  74 2.41  23 3.16  25 3.16
                            21 3.16   1 3.16  18 3.16  14 3.16
  20  0.067  0.533  0.500-  57 2.41  52 2.41  38 2.41  58 2.41  46 2.41  41 2.41   5 3.16  22 3.16
                             4 3.16  16 3.16  21 3.16  18 3.16
  21  0.867  0.533  0.500-  38 2.41  31 2.41  44 2.41  41 2.41  43 2.41  27 2.41  16 3.16  12 3.16
                            14 3.16  19 3.16  20 3.16  18 3.16
  22  0.067  0.333  0.500-  55 2.41  57 2.41  29 2.41  56 2.41  58 2.41  42 2.41   7 3.16  20 3.16
                             5 3.16  16 3.16  24 3.16   6 3.16
  23  0.867  0.933  0.500-  34 2.41  36 2.41  35 2.41  74 2.41  37 2.41  30 2.41  19 3.16   1 3.16
                             6 3.16   3 3.16  25 3.16  24 3.16
  24  0.067  0.133  0.500-  53 2.41  55 2.41  35 2.41  54 2.41  56 2.41  30 2.41  17 3.16   7 3.16
                             6 3.16  22 3.16  25 3.16  23 3.16
  25  0.067  0.933  0.500-  47 2.41  34 2.41  53 2.41  48 2.41  74 2.41  54 2.41   2 3.16  18 3.16
                            17 3.16  19 3.16  23 3.16  24 3.16
  26  0.733  0.267  0.568-   9 2.41  16 2.41  12 2.41
  27  0.933  0.667  0.432-  19 2.41  21 2.41  18 2.41
  28  0.733  0.267  0.432-   9 2.41  16 2.41  12 2.41
  29  0.933  0.267  0.568-  16 2.41   6 2.41  22 2.41
  30  0.933  0.067  0.432-   6 2.41  24 2.41  23 2.41
  31  0.933  0.667  0.568-  19 2.41  21 2.41  18 2.41
  32  0.733  0.067  0.432-   9 2.41   6 2.41   3 2.41
  33  0.733  0.067  0.568-   9 2.41   6 2.41   3 2.41
  34  0.933  0.867  0.568-  23 2.41  19 2.41  25 2.41
  35  0.933  0.067  0.568-   6 2.41  24 2.41  23 2.41
  36  0.733  0.867  0.568-   3 2.41   1 2.41  23 2.41
  37  0.733  0.867  0.432-   3 2.41   1 2.41  23 2.41
  38  0.933  0.467  0.568-  21 2.41  16 2.41  20 2.41
  39  0.733  0.667  0.432-  14 2.41  19 2.41   1 2.41
  40  0.733  0.667  0.568-  14 2.41  19 2.41   1 2.41
  41  0.933  0.467  0.432-  21 2.41  16 2.41  20 2.41
  42  0.933  0.267  0.432-  16 2.41   6 2.41  22 2.41
  43  0.733  0.467  0.432-  14 2.41  12 2.41  21 2.41
  44  0.733  0.467  0.568-  14 2.41  12 2.41  21 2.41
  45  0.533  0.867  0.432-  10 2.41   3 2.41  11 2.41
  46  0.133  0.667  0.432-  18 2.41   4 2.41  20 2.41
  47  0.133  0.867  0.568-  25 2.41  18 2.41   2 2.41
  48  0.133  0.867  0.432-  25 2.41  18 2.41   2 2.41
  49  0.333  0.067  0.432-  17 2.41   8 2.41   2 2.41
  50  0.333  0.267  0.568-  15 2.41  17 2.41   7 2.41
  51  0.333  0.067  0.568-  17 2.41   8 2.41   2 2.41
  52  0.133  0.667  0.568-  18 2.41   4 2.41  20 2.41
  53  0.133  0.067  0.568-  24 2.41  17 2.41  25 2.41
  54  0.133  0.067  0.432-  24 2.41  17 2.41  25 2.41
  55  0.133  0.267  0.568-  22 2.41   7 2.41  24 2.41
  56  0.133  0.267  0.432-  22 2.41   7 2.41  24 2.41
  57  0.133  0.467  0.568-  20 2.41   5 2.41  22 2.41
  58  0.133  0.467  0.432-  20 2.41   5 2.41  22 2.41
  59  0.333  0.267  0.432-  15 2.41  17 2.41   7 2.41
  60  0.333  0.467  0.568-   5 2.41   7 2.41  13 2.41
  61  0.533  0.267  0.568-  15 2.41  12 2.41   8 2.41
  62  0.533  0.267  0.432-  15 2.41  12 2.41   8 2.41
  63  0.533  0.467  0.432-  13 2.41  14 2.41  15 2.41
  64  0.533  0.667  0.568-  11 2.41   1 2.41  13 2.41
  65  0.533  0.667  0.432-  11 2.41   1 2.41  13 2.41
  66  0.533  0.867  0.568-  10 2.41   3 2.41  11 2.41
  67  0.333  0.467  0.432-   5 2.41   7 2.41  13 2.41
  68  0.333  0.667  0.568-   5 2.41  11 2.41   4 2.41
  69  0.333  0.667  0.432-   5 2.41  11 2.41   4 2.41
  70  0.333  0.867  0.568-   2 2.41   4 2.41  10 2.41
  71  0.333  0.867  0.432-   2 2.41   4 2.41  10 2.41
  72  0.533  0.067  0.568-   8 2.41   9 2.41  10 2.41
  73  0.533  0.067  0.432-   8 2.41   9 2.41  10 2.41
  74  0.933  0.867  0.432-  23 2.41  19 2.41  25 2.41
 
  LATTYP: Found a hexagonal cell.
 ALAT       =    15.8227970706
 C/A-ratio  =     1.4623157837
  
  Lattice vectors:
  
 A1 = (   7.9113985353, -13.7029442220,   0.0000000000)
 A2 = (   7.9113985353,  13.7029442220,   0.0000000000)
 A3 = (   0.0000000000,   0.0000000000,  23.1379258980)


Analysis of symmetry for initial positions (statically):
=====================================================================
 Subroutine PRICEL returns:
 Original cell was already a primitive cell.
 

 Routine SETGRP: Setting up the symmetry group for a 
 hexagonal supercell.


 Subroutine GETGRP returns: Found  6 space group operations
 (whereof  2 operations were pure point group operations)
 out of a pool of 24 trial point group operations.


The static configuration has the point symmetry C_1h.
 The point group associated with its full space group is C_3v.


Analysis of symmetry for dynamics (positions and initial velocities):
=====================================================================
 Subroutine PRICEL returns:
 Original cell was already a primitive cell.
 

 Routine SETGRP: Setting up the symmetry group for a 
 hexagonal supercell.


 Subroutine GETGRP returns: Found  6 space group operations
 (whereof  2 operations were pure point group operations)
 out of a pool of 24 trial point group operations.


The dynamic configuration has the point symmetry C_1h.
 The point group associated with its full space group is C_3v.


Analysis of structural, dynamic, and magnetic symmetry:
=====================================================================
 Subroutine PRICEL returns:
 Original cell was already a primitive cell.
 

 Routine SETGRP: Setting up the symmetry group for a 
 hexagonal supercell.


 Subroutine GETGRP returns: Found  6 space group operations
 (whereof  2 operations were pure point group operations)
 out of a pool of 24 trial point group operations.


The overall configuration has the point symmetry C_1h.
 The point group associated with its full space group is C_3v.


 Subroutine INISYM returns: Found  6 space group operations
 (whereof  2 operations are pure point group operations),
 and found     1 'primitive' translations


----------------------------------------------------------------------------------------

                                     Primitive cell                                     

  volume of cell :    5016.7398

  direct lattice vectors                    reciprocal lattice vectors
     7.911398535-13.702944222  0.000000000     0.063199951 -0.036488509  0.000000000
     7.911398535 13.702944222  0.000000000     0.063199951  0.036488509  0.000000000
     0.000000000  0.000000000 23.137925898     0.000000000  0.000000000  0.043219086

  length of vectors
    15.822797071 15.822797071 23.137925898     0.072977017  0.072977017  0.043219086

  position of ions in fractional coordinates (direct lattice)
     0.666666667  0.733333333  0.500020000
     0.266666667  0.933333333  0.500020000
     0.666666667  0.933333333  0.500020000
     0.266666667  0.733333333  0.500020000
     0.266666667  0.533333333  0.500020000
     0.866666667  0.133333333  0.500020000
     0.266666667  0.333333333  0.500020000
     0.466666667  0.133333333  0.500020000
     0.666666667  0.133333333  0.500020000
     0.466666667  0.933333333  0.500020000
     0.466666667  0.733333333  0.500020000
     0.666666667  0.333333333  0.500020000
     0.466666667  0.533333333  0.500020000
     0.666666667  0.533333333  0.500020000
     0.466666667  0.333333333  0.500020000
     0.866666667  0.333333333  0.500020000
     0.266666667  0.133333333  0.500020000
     0.066666667  0.733333333  0.500020000
     0.866666667  0.733333333  0.500020000
     0.066666667  0.533333333  0.500020000
     0.866666667  0.533333333  0.500020000
     0.066666667  0.333333333  0.500020000
     0.866666667  0.933333333  0.500020000
     0.066666667  0.133333333  0.500020000
     0.066666667  0.933333333  0.500020000
     0.733333333  0.266666667  0.567779216
     0.933333333  0.666666667  0.432160928
     0.733333333  0.266666667  0.432160928
     0.933333333  0.266666667  0.567779216
     0.933333333  0.066666667  0.432160928
     0.933333333  0.666666667  0.567779216
     0.733333333  0.066666667  0.432160928
     0.733333333  0.066666667  0.567779216
     0.933333333  0.866666667  0.567779216
     0.933333333  0.066666667  0.567779216
     0.733333333  0.866666667  0.567779216
     0.733333333  0.866666667  0.432160928
     0.933333333  0.466666667  0.567779216
     0.733333333  0.666666667  0.432160928
     0.733333333  0.666666667  0.567779216
     0.933333333  0.466666667  0.432160928
     0.933333333  0.266666667  0.432160928
     0.733333333  0.466666667  0.432160928
     0.733333333  0.466666667  0.567779216
     0.533333333  0.866666667  0.432160928
     0.133333333  0.666666667  0.432160928
     0.133333333  0.866666667  0.567779216
     0.133333333  0.866666667  0.432160928
     0.333333333  0.066666667  0.432160928
     0.333333333  0.266666667  0.567779216
     0.333333333  0.066666667  0.567779216
     0.133333333  0.666666667  0.567779216
     0.133333333  0.066666667  0.567779216
     0.133333333  0.066666667  0.432160928
     0.133333333  0.266666667  0.567779216
     0.133333333  0.266666667  0.432160928
     0.133333333  0.466666667  0.567779216
     0.133333333  0.466666667  0.432160928
     0.333333333  0.266666667  0.432160928
     0.333333333  0.466666667  0.567779216
     0.533333333  0.266666667  0.567779216
     0.533333333  0.266666667  0.432160928
     0.533333333  0.466666667  0.432160928
     0.533333333  0.666666667  0.567779216
     0.533333333  0.666666667  0.432160928
     0.533333333  0.866666667  0.567779216
     0.333333333  0.466666667  0.432160928
     0.333333333  0.666666667  0.567779216
     0.333333333  0.666666667  0.432160928
     0.333333333  0.866666667  0.567779216
     0.333333333  0.866666667  0.432160928
     0.533333333  0.066666667  0.567779216
     0.533333333  0.066666667  0.432160928
     0.933333333  0.866666667  0.432160928

  ion indices of the primitive-cell ions
   primitive index   ion index
                 1           1
                 2           2
                 3           3
                 4           4
                 5           5
                 6           6
                 7           7
                 8           8
                 9           9
                10          10
                11          11
                12          12
                13          13
                14          14
                15          15
                16          16
                17          17
                18          18
                19          19
                20          20
                21          21
                22          22
                23          23
                24          24
                25          25
                26          26
                27          27
                28          28
                29          29
                30          30
                31          31
                32          32
                33          33
                34          34
                35          35
                36          36
                37          37
                38          38
                39          39
                40          40
                41          41
                42          42
                43          43
                44          44
                45          45
                46          46
                47          47
                48          48
                49          49
                50          50
                51          51
                52          52
                53          53
                54          54
                55          55
                56          56
                57          57
                58          58
                59          59
                60          60
                61          61
                62          62
                63          63
                64          64
                65          65
                66          66
                67          67
                68          68
                69          69
                70          70
                71          71
                72          72
                73          73
                74          74

----------------------------------------------------------------------------------------

 
 
 KPOINTS: K-Points                                

Automatic generation of k-mesh.
 Grid dimensions read from file:
 generate k-points for:    3    3    1

 Generating k-lattice:

  Cartesian coordinates                     Fractional coordinates (reciprocal lattice)
     0.021066650 -0.012162836  0.000000000     0.333333333 -0.000000000  0.000000000
     0.021066650  0.012162836  0.000000000    -0.000000000  0.333333333  0.000000000
     0.000000000  0.000000000  0.043219086     0.000000000  0.000000000  1.000000000

  Length of vectors
     0.024325672  0.024325672  0.043219086

  Shift w.r.t. Gamma in fractional coordinates (k-lattice)
     0.000000000  0.000000000  0.000000000

 
 Subroutine IBZKPT returns following result:
 ===========================================
 
 Found      3 irreducible k-points:
 
 Following reciprocal coordinates:
            Coordinates               Weight
  0.000000  0.000000  0.000000      1.000000
  0.333333  0.000000  0.000000      6.000000
  0.333333  0.333333  0.000000      2.000000
 
 Following cartesian coordinates:
            Coordinates               Weight
  0.000000  0.000000  0.000000      1.000000
  0.021067 -0.012163  0.000000      6.000000
  0.042133 -0.000000  0.000000      2.000000
 


--------------------------------------------------------------------------------------------------------




 Dimension of arrays:
   k-points           NKPTS =      3   k-points in BZ     NKDIM =      3   number of bands    NBANDS=    426
   number of dos      NEDOS =    301   number of ions     NIONS =     74
   non local maximal  LDIM  =      6   non local SUM 2l+1 LMDIM =     18
   total plane-waves  NPLWV = ******
   max r-space proj   IRMAX =   3477   max aug-charges    IRDMAX=  11445
   dimension x,y,z NGX =    96 NGY =   96 NGZ =  140
   dimension x,y,z NGXF=   192 NGYF=  192 NGZF=  280
   support grid    NGXF=   192 NGYF=  192 NGZF=  280
   ions per type =              25  49
   NGX,Y,Z   is equivalent  to a cutoff of  10.09, 10.09, 10.06 a.u.
   NGXF,Y,Z  is equivalent  to a cutoff of  20.17, 20.17, 20.12 a.u.

 SYSTEM =  unknown system                          
 POSCAR =  Mo S                                    

 Startparameter for this run:
   NWRITE =      2    write-flag & timer
   PREC   = normal    normal or accurate (medium, high low for compatibility)
   ISTART =      0    job   : 0-new  1-cont  2-samecut
   ICHARG =      2    charge: 1-file 2-atom 10-const
   ISPIN  =      2    spin polarized calculation?
   LNONCOLLINEAR =      F non collinear calculations
   LSORBIT =      F    spin-orbit coupling
   INIWAV =      1    electr: 0-lowe 1-rand  2-diag
   LASPH  =      T    aspherical Exc in radial PAW
 Electronic Relaxation 1
   ENCUT  =  600.0 eV  44.10 Ry    6.64 a.u.  31.60 31.60 46.21*2*pi/ulx,y,z
   ENINI  =  600.0     initial cutoff
   ENAUG  =  446.0 eV  augmentation charge cutoff
   NELM   =   2000;   NELMIN=  2; NELMDL= -5     # of ELM steps 
   EDIFF  = 0.1E-05   stopping-criterion for ELM
   LREAL  =      T    real-space projection
   NLSPLINE    = F    spline interpolate recip. space projectors
   LCOMPAT=      F    compatible to vasp.4.4
   GGA_COMPAT  = T    GGA compatible to vasp.4.4-vasp.4.6
   LMAXPAW     = -100 max onsite density
   LMAXMIX     =    2 max onsite mixed and CHGCAR
   VOSKOWN=      0    Vosko Wilk Nusair interpolation
   ROPT   =   -0.00050  -0.00050
 Ionic relaxation
   EDIFFG = -.1E-01   stopping-criterion for IOM
   NSW    =   5000    number of steps for IOM
   NBLOCK =      1;   KBLOCK =   5000    inner block; outer block 
   IBRION =      2    ionic relax: 0-MD 1-quasi-New 2-CG
   NFREE  =      1    steps in history (QN), initial steepest desc. (CG)
   ISIF   =      2    stress and relaxation
   IWAVPR =     11    prediction:  0-non 1-charg 2-wave 3-comb
   ISYM   =      2    0-nonsym 1-usesym 2-fastsym
   LCORR  =      T    Harris-Foulkes like correction to forces

   POTIM  = 0.5000    time-step for ionic-motion
   TEIN   =    0.0    initial temperature
   TEBEG  =    0.0;   TEEND  =   0.0 temperature during run
   SMASS  =  -3.00    Nose mass-parameter (am)
   estimated Nose-frequenzy (Omega)   =  0.10E-29 period in steps = 0.13E+47 mass=  -0.572E-26a.u.
   SCALEE = 1.0000    scale energy and forces
   NPACO  =    256;   APACO  = 10.0  distance and # of slots for P.C.
   PSTRESS=    0.0 pullay stress

  Mass of Ions in am
   POMASS =  95.94 32.07
  Ionic Valenz
   ZVAL   =  14.00  6.00
  Atomic Wigner-Seitz radii
   RWIGS  =  -1.00 -1.00
  virtual crystal weights 
   VCA    =   1.00  1.00
   NELECT =     644.0000    total number of electrons
   NUPDOWN=      -1.0000    fix difference up-down

 DOS related values:
   EMIN   =  10.00;   EMAX   =-10.00  energy-range for DOS
   EFERMI =   0.00
   ISMEAR =     0;   SIGMA  =   0.05  broadening in eV -4-tet -1-fermi 0-gaus

 Electronic relaxation 2 (details)
   IALGO  =     38    algorithm
   LDIAG  =      T    sub-space diagonalisation (order eigenvalues)
   LSUBROT=      F    optimize rotation matrix (better conditioning)
   TURBO    =      0    0=normal 1=particle mesh
   IRESTART =      0    0=no restart 2=restart with 2 vectors
   NREBOOT  =      0    no. of reboots
   NMIN     =      0    reboot dimension
   EREF     =   0.00    reference energy to select bands
   IMIX   =      4    mixing-type and parameters
     AMIX     =   0.40;   BMIX     =  1.00
     AMIX_MAG =   1.60;   BMIX_MAG =  1.00
     AMIN     =   0.10
     WC   =   100.;   INIMIX=   1;  MIXPRE=   1;  MAXMIX= -45

 Intra band minimization:
   WEIMIN = 0.0010     energy-eigenvalue tresh-hold
   EBREAK =  0.59E-09  absolut break condition
   DEPER  =   0.30     relativ break condition  

   TIME   =   0.40     timestep for ELM

  volume/ion in A,a.u.               =      67.79       457.50
  Fermi-wavevector in a.u.,A,eV,Ry     =   0.825841  1.560613  9.279347  0.682013
  Thomas-Fermi vector in A             =   1.937769
 
 Write flags
   LWAVE        =      F    write WAVECAR
   LDOWNSAMPLE  =      F    k-point downsampling of WAVECAR
   LCHARG       =      F    write CHGCAR
   LVTOT        =      F    write LOCPOT, total local potential
   LVHAR        =      F    write LOCPOT, Hartree potential only
   LELF         =      F    write electronic localiz. function (ELF)
   LORBIT       =      0    0 simple, 1 ext, 2 COOP (PROOUT), +10 PAW based schemes


 Dipole corrections
   LMONO  =      F    monopole corrections only (constant potential shift)
   LDIPOL =      T    correct potential (dipole corrections)
   IDIPOL =      3    1-x, 2-y, 3-z, 4-all directions 
   EPSILON=  1.0000000 bulk dielectric constant

 Exchange correlation treatment:
   GGA     =    MK    GGA type
   LEXCH   =    43    internal setting for exchange type
   LIBXC   =     F    Libxc                    
   VOSKOWN =     0    Vosko Wilk Nusair interpolation
   LHFCALC =     F    Hartree Fock is set to
   LHFONE  =     F    Hartree Fock one center treatment
   AEXX    =    0.0000 exact exchange contribution

 vdW DFT:
   LUSE_VDW   =     T    switch on vdW DFT
   Zab_VDW    =-.8491    correlation parameter
   PARAM1     =0.1234
   PARAM2     =1.0000
   PARAM3     =0.0000
   -- rVV10 --
   BPARAM     = 6.3000
   CPARAM     = 0.0093

 Linear response parameters
   LEPSILON=     F    determine dielectric tensor
   LRPA    =     F    only Hartree local field effects (RPA)
   LNABLA  =     F    use nabla operator in PAW spheres
   LVEL    =     F    velocity operator in full k-point grid
   CSHIFT  =0.1000    complex shift for real part using Kramers Kronig
   OMEGAMAX=  -1.0    maximum frequency
   DEG_THRESHOLD= 0.2000000E-02 threshold for treating states as degnerate
   RTIME   =   -0.100 relaxation time in fs
  (WPLASMAI=    0.000 imaginary part of plasma frequency in eV, 0.658/RTIME)
   DFIELD  = 0.0000000 0.0000000 0.0000000 field for delta impulse in time
 
  Optional k-point grid parameters
   LKPOINTS_OPT  =     F    use optional k-point grid
   KPOINTS_OPT_MODE=     1    mode for optional k-point grid
 
 Orbital magnetization related:
   ORBITALMAG=     F  switch on orbital magnetization
   LCHIMAG   =     F  perturbation theory with respect to B field
   DQ        =  0.001000  dq finite difference perturbation B field
   LLRAUG    =     F  two centre corrections for induced B field



--------------------------------------------------------------------------------------------------------


 conjugate gradient relaxation of ions
 charge density and potential will be updated during run
 spin polarized calculation
 Variant of blocked Davidson
 Davidson routine will perform the subspace rotation
 perform sub-space diagonalisation
    after iterative eigenvector-optimisation
 modified Broyden-mixing scheme, WC =      100.0
 initial mixing is a Kerker type mixing with AMIX =  0.4000 and BMIX =      1.0000
 Hartree-type preconditioning will be used
 using additional bands          104
 real space projection scheme for non local part
 use partial core corrections
 calculate Harris-corrections to forces 
   (improved forces if not selfconsistent)
 use gradient corrections 
 use of overlap-Matrix (Vanderbilt PP)
 Gauss-broadening in eV      SIGMA  =   0.05


--------------------------------------------------------------------------------------------------------


  energy-cutoff  :      600.00
  volume of cell :     5016.74
      direct lattice vectors                 reciprocal lattice vectors
     7.911398535-13.702944222  0.000000000     0.063199951 -0.036488509  0.000000000
     7.911398535 13.702944222  0.000000000     0.063199951  0.036488509  0.000000000
     0.000000000  0.000000000 23.137925898     0.000000000  0.000000000  0.043219086

  length of vectors
    15.822797071 15.822797071 23.137925898     0.072977017  0.072977017  0.043219086


 
 k-points in units of 2pi/SCALE and weight: K-Points                                
   0.00000000  0.00000000  0.00000000       0.111
   0.02106665 -0.01216284  0.00000000       0.667
   0.04213330 -0.00000000  0.00000000       0.222
 
 k-points in reciprocal lattice and weights: K-Points                                
   0.00000000  0.00000000  0.00000000       0.111
   0.33333333  0.00000000  0.00000000       0.667
   0.33333333  0.33333333  0.00000000       0.222
 
 position of ions in fractional coordinates (direct lattice) 
   0.66666667  0.73333333  0.50002000
   0.26666667  0.93333333  0.50002000
   0.66666667  0.93333333  0.50002000
   0.26666667  0.73333333  0.50002000
   0.26666667  0.53333333  0.50002000
   0.86666667  0.13333333  0.50002000
   0.26666667  0.33333333  0.50002000
   0.46666667  0.13333333  0.50002000
   0.66666667  0.13333333  0.50002000
   0.46666667  0.93333333  0.50002000
   0.46666667  0.73333333  0.50002000
   0.66666667  0.33333333  0.50002000
   0.46666667  0.53333333  0.50002000
   0.66666667  0.53333333  0.50002000
   0.46666667  0.33333333  0.50002000
   0.86666667  0.33333333  0.50002000
   0.26666667  0.13333333  0.50002000
   0.06666667  0.73333333  0.50002000
   0.86666667  0.73333333  0.50002000
   0.06666667  0.53333333  0.50002000
   0.86666667  0.53333333  0.50002000
   0.06666667  0.33333333  0.50002000
   0.86666667  0.93333333  0.50002000
   0.06666667  0.13333333  0.50002000
   0.06666667  0.93333333  0.50002000
   0.73333333  0.26666667  0.56777922
   0.93333333  0.66666667  0.43216093
   0.73333333  0.26666667  0.43216093
   0.93333333  0.26666667  0.56777922
   0.93333333  0.06666667  0.43216093
   0.93333333  0.66666667  0.56777922
   0.73333333  0.06666667  0.43216093
   0.73333333  0.06666667  0.56777922
   0.93333333  0.86666667  0.56777922
   0.93333333  0.06666667  0.56777922
   0.73333333  0.86666667  0.56777922
   0.73333333  0.86666667  0.43216093
   0.93333333  0.46666667  0.56777922
   0.73333333  0.66666667  0.43216093
   0.73333333  0.66666667  0.56777922
   0.93333333  0.46666667  0.43216093
   0.93333333  0.26666667  0.43216093
   0.73333333  0.46666667  0.43216093
   0.73333333  0.46666667  0.56777922
   0.53333333  0.86666667  0.43216093
   0.13333333  0.66666667  0.43216093
   0.13333333  0.86666667  0.56777922
   0.13333333  0.86666667  0.43216093
   0.33333333  0.06666667  0.43216093
   0.33333333  0.26666667  0.56777922
   0.33333333  0.06666667  0.56777922
   0.13333333  0.66666667  0.56777922
   0.13333333  0.06666667  0.56777922
   0.13333333  0.06666667  0.43216093
   0.13333333  0.26666667  0.56777922
   0.13333333  0.26666667  0.43216093
   0.13333333  0.46666667  0.56777922
   0.13333333  0.46666667  0.43216093
   0.33333333  0.26666667  0.43216093
   0.33333333  0.46666667  0.56777922
   0.53333333  0.26666667  0.56777922
   0.53333333  0.26666667  0.43216093
   0.53333333  0.46666667  0.43216093
   0.53333333  0.66666667  0.56777922
   0.53333333  0.66666667  0.43216093
   0.53333333  0.86666667  0.56777922
   0.33333333  0.46666667  0.43216093
   0.33333333  0.66666667  0.56777922
   0.33333333  0.66666667  0.43216093
   0.33333333  0.86666667  0.56777922
   0.33333333  0.86666667  0.43216093
   0.53333333  0.06666667  0.56777922
   0.53333333  0.06666667  0.43216093
   0.93333333  0.86666667  0.43216093
 
 position of ions in cartesian coordinates  (Angst):
  11.07595795  0.91352961 11.56942570
   9.49367824  9.13529615 11.56942570
  12.65823766  3.65411846 11.56942570
   7.91139854  6.39470730 11.56942570
   6.32911883  3.65411846 11.56942570
   7.91139854-10.04882576 11.56942570
   4.74683912  0.91352961 11.56942570
   4.74683912 -4.56764807 11.56942570
   6.32911883 -7.30823692 11.56942570
  11.07595795  6.39470730 11.56942570
   9.49367824  3.65411846 11.56942570
   7.91139854 -4.56764807 11.56942570
   7.91139854  0.91352961 11.56942570
   9.49367824 -1.82705923 11.56942570
   6.32911883 -1.82705923 11.56942570
   9.49367824 -7.30823692 11.56942570
   3.16455941 -1.82705923 11.56942570
   6.32911883  9.13529615 11.56942570
  12.65823766 -1.82705923 11.56942570
   4.74683912  6.39470730 11.56942570
  11.07595795 -4.56764807 11.56942570
   3.16455941  3.65411846 11.56942570
  14.24051736  0.91352961 11.56942570
   1.58227971  0.91352961 11.56942570
   7.91139854 11.87588499 11.56942570
   7.91139854 -6.39470730 13.13723344
  12.65823766 -3.65411846  9.99930754
   7.91139854 -6.39470730  9.99930754
   9.49367824 -9.13529615 13.13723344
   7.91139854-11.87588499  9.99930754
  12.65823766 -3.65411846 13.13723344
   6.32911883 -9.13529615  9.99930754
   6.32911883 -9.13529615 13.13723344
  14.24051736 -0.91352961 13.13723344
   7.91139854-11.87588499 13.13723344
  12.65823766  1.82705923 13.13723344
  12.65823766  1.82705923  9.99930754
  11.07595795 -6.39470730 13.13723344
  11.07595795 -0.91352961  9.99930754
  11.07595795 -0.91352961 13.13723344
  11.07595795 -6.39470730  9.99930754
   9.49367824 -9.13529615  9.99930754
   9.49367824 -3.65411846  9.99930754
   9.49367824 -3.65411846 13.13723344
  11.07595795  4.56764807  9.99930754
   6.32911883  7.30823692  9.99930754
   7.91139854 10.04882576 13.13723344
   7.91139854 10.04882576  9.99930754
   3.16455941 -3.65411846  9.99930754
   4.74683912 -0.91352961 13.13723344
   3.16455941 -3.65411846 13.13723344
   6.32911883  7.30823692 13.13723344
   1.58227971 -0.91352961 13.13723344
   1.58227971 -0.91352961  9.99930754
   3.16455941  1.82705923 13.13723344
   3.16455941  1.82705923  9.99930754
   4.74683912  4.56764807 13.13723344
   4.74683912  4.56764807  9.99930754
   4.74683912 -0.91352961  9.99930754
   6.32911883  1.82705923 13.13723344
   6.32911883 -3.65411846 13.13723344
   6.32911883 -3.65411846  9.99930754
   7.91139854 -0.91352961  9.99930754
   9.49367824  1.82705923 13.13723344
   9.49367824  1.82705923  9.99930754
  11.07595795  4.56764807 13.13723344
   6.32911883  1.82705923  9.99930754
   7.91139854  4.56764807 13.13723344
   7.91139854  4.56764807  9.99930754
   9.49367824  7.30823692 13.13723344
   9.49367824  7.30823692  9.99930754
   4.74683912 -6.39470730 13.13723344
   4.74683912 -6.39470730  9.99930754
  14.24051736 -0.91352961  9.99930754
 


--------------------------------------------------------------------------------------------------------


 k-point   1 :   0.0000 0.0000 0.0000  plane waves:  167445
 k-point   2 :   0.3333 0.0000 0.0000  plane waves:  167407
 k-point   3 :   0.3333 0.3333 0.0000  plane waves:  167430

 maximum and minimum number of plane-waves per node :     10516    10430

 maximum number of plane-waves:    167445
 maximum index in each direction: 
   IXMAX=   31   IYMAX=   31   IZMAX=   46
   IXMIN=  -31   IYMIN=  -31   IZMIN=  -46


 real space projection operators:
  total allocation   :      15501.14 KBytes
  max/ min on nodes  :        977.72        963.12


 parallel 3D FFT for wavefunctions:
    minimum data exchange during FFTs selected (reduces bandwidth)
 parallel 3D FFT for charge:
    minimum data exchange during FFTs selected (reduces bandwidth)


 total amount of memory used by VASP MPI-rank0   128740. kBytes
=======================================================================

   base      :      30000. kBytes
   nonlr-proj:       5559. kBytes
   fftplans  :       6134. kBytes
   grid      :      15120. kBytes
   one-center:        155. kBytes
   wavefun   :      71772. kBytes
 
     INWAV:  cpu time      0.0001: real time      0.0001
 Broyden mixing: mesh for mixing (old mesh)
   NGX = 63   NGY = 63   NGZ = 93
  (NGX  =192   NGY  =192   NGZ  =280)
  gives a total of 369117 points

 initial charge density was supplied:
 charge density of overlapping atoms calculated
 number of electron     644.0000000 magnetization      74.0000000
 keeping initial charge density in first step


--------------------------------------------------------------------------------------------------------


 Maximum index for non-local projection operator          244
 Maximum index for augmentation-charges          445 (set IRDMAX)


--------------------------------------------------------------------------------------------------------


 First call to EWALD:  gamma=   0.104
 Maximum number of real-space cells 3x 3x 2
 Maximum number of reciprocal cells 3x 3x 4

    FEWALD:  cpu time      0.0140: real time      0.0140


--------------------------------------- Iteration      1(   1)  ---------------------------------------


vdW kernel read from vdw_kernel.bindat
  0.0000  0.2424  0.5071  0.7962  1.1119  1.4567  1.8333  2.2446  2.6937  3.1842
  3.7199  4.3049  4.9438  5.6415  6.4036  7.2358  8.1446  9.1372 10.2212 11.4050
 12.6979 14.1099 15.6519 17.3360 19.1751 21.1837 23.3773 25.7729 28.3892 31.2465
 34.3669 37.7748 41.4965 45.5611 50.0000
 
    POTLOK:  cpu time      5.5585: real time      5.5730
    SETDIJ:  cpu time      2.8739: real time      2.8771
     EDDAV:  cpu time     19.7438: real time     19.8081
       DOS:  cpu time      0.0113: real time      0.0113
    --------------------------------------------
      LOOP:  cpu time     28.1877: real time     28.2696

 eigenvalue-minimisations  :  6216
 total energy-change (2. order) : 0.5896581E+04  (-0.3269064E+05)
 number of electron     644.0000000 magnetization      74.0000000
 augmentation part      644.0000000 magnetization      74.0000000

 DIPCOR: dipole corrections for dipol
 direction  3 min pos     1,
 dipolmoment           0.000000      0.000000      0.000006 electrons x Angstroem
 Tr[quadrupol]    -26730.441898

 energy correction for charged system         0.000000 eV
 dipol+quadrupol energy correction           -0.000000 eV
 added-field ion interaction          0.000002 eV  (added to PSCEN)


 Free energy of the ion-electron system (eV)
  ---------------------------------------------------
  alpha Z        PSCENC =       580.68977707
  Ewald energy   TEWEN  =    181423.47005894
  -Hartree energ DENC   =   -233345.58132530
  -exchange      EXHF   =         0.00000000
  -V(xc)+E(xc)   XCENC  =      2277.27991551
  PAW double counting   =     48135.58332963   -47484.65169992
  entropy T*S    EENTRO =        -0.05351476
  eigenvalues    EBANDS =     -5957.96391679
  atomic energy  EATOM  =     60267.80825831
  Solvation  Ediel_sol  =         0.00000000
  ---------------------------------------------------
  free energy    TOTEN  =      5896.58088267 eV

  energy without entropy =     5896.63439743  energy(sigma->0) =     5896.60764005


--------------------------------------------------------------------------------------------------------




--------------------------------------- Iteration      1(   2)  ---------------------------------------


     EDDAV:  cpu time     22.1516: real time     22.1788
       DOS:  cpu time      0.0035: real time      0.0035
    --------------------------------------------
      LOOP:  cpu time     22.1550: real time     22.1823

 eigenvalue-minimisations  :  7080
 total energy-change (2. order) :-0.5646342E+04  (-0.5464211E+04)
 number of electron     644.0000000 magnetization      74.0000000
 augmentation part      644.0000000 magnetization      74.0000000

 DIPCOR: dipole corrections for dipol
 direction  3 min pos     1,
 dipolmoment           0.000000      0.000000      0.000006 electrons x Angstroem
 Tr[quadrupol]    -26730.441898

 energy correction for charged system         0.000000 eV
 dipol+quadrupol energy correction           -0.000000 eV
 added-field ion interaction          0.000002 eV  (added to PSCEN)


 Free energy of the ion-electron system (eV)
  ---------------------------------------------------
  alpha Z        PSCENC =       580.68977707
  Ewald energy   TEWEN  =    181423.47005894
  -Hartree energ DENC   =   -233345.58132530
  -exchange      EXHF   =         0.00000000
  -V(xc)+E(xc)   XCENC  =      2277.27991551
  PAW double counting   =     48135.58332963   -47484.65169992
  entropy T*S    EENTRO =        -0.00000000
  eigenvalues    EBANDS =    -11604.35897528
  atomic energy  EATOM  =     60267.80825831
  Solvation  Ediel_sol  =         0.00000000
  ---------------------------------------------------
  free energy    TOTEN  =       250.23933895 eV

  energy without entropy =      250.23933895  energy(sigma->0) =      250.23933895


--------------------------------------------------------------------------------------------------------




--------------------------------------- Iteration      1(   3)  ---------------------------------------


     EDDAV:  cpu time     19.4108: real time     19.4356
       DOS:  cpu time      0.0027: real time      0.0027
    --------------------------------------------
      LOOP:  cpu time     19.4135: real time     19.4383

 eigenvalue-minimisations  :  6144
 total energy-change (2. order) :-0.6451308E+03  (-0.6373791E+03)
 number of electron     644.0000000 magnetization      74.0000000
 augmentation part      644.0000000 magnetization      74.0000000

 DIPCOR: dipole corrections for dipol
 direction  3 min pos     1,
 dipolmoment           0.000000      0.000000      0.000006 electrons x Angstroem
 Tr[quadrupol]    -26730.441898

 energy correction for charged system         0.000000 eV
 dipol+quadrupol energy correction           -0.000000 eV
 added-field ion interaction          0.000002 eV  (added to PSCEN)


 Free energy of the ion-electron system (eV)
  ---------------------------------------------------
  alpha Z        PSCENC =       580.68977707
  Ewald energy   TEWEN  =    181423.47005894
  -Hartree energ DENC   =   -233345.58132530
  -exchange      EXHF   =         0.00000000
  -V(xc)+E(xc)   XCENC  =      2277.27991551
  PAW double counting   =     48135.58332963   -47484.65169992
  entropy T*S    EENTRO =        -0.00000000
  eigenvalues    EBANDS =    -12249.48980326
  atomic energy  EATOM  =     60267.80825831
  Solvation  Ediel_sol  =         0.00000000
  ---------------------------------------------------
  free energy    TOTEN  =      -394.89148904 eV

  energy without entropy =     -394.89148904  energy(sigma->0) =     -394.89148904


--------------------------------------------------------------------------------------------------------




--------------------------------------- Iteration      1(   4)  ---------------------------------------


     EDDAV:  cpu time     19.5003: real time     19.5235
       DOS:  cpu time      0.0026: real time      0.0026
    --------------------------------------------
      LOOP:  cpu time     19.5030: real time     19.5261

 eigenvalue-minimisations  :  6144
 total energy-change (2. order) :-0.2139111E+02  (-0.2111129E+02)
 number of electron     644.0000000 magnetization      74.0000000
 augmentation part      644.0000000 magnetization      74.0000000

 DIPCOR: dipole corrections for dipol
 direction  3 min pos     1,
 dipolmoment           0.000000      0.000000      0.000006 electrons x Angstroem
 Tr[quadrupol]    -26730.441898

 energy correction for charged system         0.000000 eV
 dipol+quadrupol energy correction           -0.000000 eV
 added-field ion interaction          0.000002 eV  (added to PSCEN)


 Free energy of the ion-electron system (eV)
  ---------------------------------------------------
  alpha Z        PSCENC =       580.68977707
  Ewald energy   TEWEN  =    181423.47005894
  -Hartree energ DENC   =   -233345.58132530
  -exchange      EXHF   =         0.00000000
  -V(xc)+E(xc)   XCENC  =      2277.27991551
  PAW double counting   =     48135.58332963   -47484.65169992
  entropy T*S    EENTRO =        -0.00000000
  eigenvalues    EBANDS =    -12270.88091360
  atomic energy  EATOM  =     60267.80825831
  Solvation  Ediel_sol  =         0.00000000
  ---------------------------------------------------
  free energy    TOTEN  =      -416.28259938 eV

  energy without entropy =     -416.28259938  energy(sigma->0) =     -416.28259938


--------------------------------------------------------------------------------------------------------




--------------------------------------- Iteration      1(   5)  ---------------------------------------


     EDDAV:  cpu time     21.1806: real time     21.1985
       DOS:  cpu time      0.0044: real time      0.0044
    CHARGE:  cpu time      1.9214: real time      1.9222
    MIXING:  cpu time      0.0309: real time      0.0311
    --------------------------------------------
      LOOP:  cpu time     23.1374: real time     23.1563

 eigenvalue-minimisations  :  6732
 total energy-change (2. order) :-0.6951945E+00  (-0.6901386E+00)
 number of electron     644.0000241 magnetization      65.8686450
 augmentation part       10.1771471 magnetization      65.5285164

 DIPCOR: dipole corrections for dipol
 direction  3 min pos     1,
 dipolmoment           0.000000      0.000000      0.000006 electrons x Angstroem
 Tr[quadrupol]    -26730.441898

 energy correction for charged system         0.000000 eV
 dipol+quadrupol energy correction           -0.000000 eV
 added-field ion interaction          0.000002 eV  (added to PSCEN)


 Broyden mixing:
  rms(total) = 0.12138E+02    rms(broyden)= 0.12138E+02
  rms(prec ) = 0.12246E+02
  weight for this iteration     100.00

 Free energy of the ion-electron system (eV)
  ---------------------------------------------------
  alpha Z        PSCENC =       580.68977707
  Ewald energy   TEWEN  =    181423.47005894
  -Hartree energ DENC   =   -233345.58132530
  -exchange      EXHF   =         0.00000000
  -V(xc)+E(xc)   XCENC  =      2277.27991551
  PAW double counting   =     48135.58332963   -47484.65169992
  entropy T*S    EENTRO =        -0.00000000
  eigenvalues    EBANDS =    -12271.57610808
  atomic energy  EATOM  =     60267.80825831
  Solvation  Ediel_sol  =         0.00000000
  ---------------------------------------------------
  free energy    TOTEN  =      -416.97779385 eV

  energy without entropy =     -416.97779385  energy(sigma->0) =     -416.97779385


--------------------------------------------------------------------------------------------------------




--------------------------------------- Iteration      1(   6)  ---------------------------------------


    POTLOK:  cpu time      4.4054: real time      4.4188
    SETDIJ:  cpu time      2.8656: real time      2.8678
     EDDAV:  cpu time     18.6694: real time     18.6819
       DOS:  cpu time      0.0081: real time      0.0081
    CHARGE:  cpu time      1.8972: real time      1.8980
    MIXING:  cpu time      0.0316: real time      0.0370
    --------------------------------------------
      LOOP:  cpu time     27.8773: real time     27.9115

 eigenvalue-minimisations  :  5772
 total energy-change (2. order) : 0.3357010E+02  (-0.1931750E+02)
 number of electron     644.0000240 magnetization      58.3192516
 augmentation part       25.3478256 magnetization      57.5343970

 DIPCOR: dipole corrections for dipol
 direction  3 min pos     1,
 dipolmoment           0.000000      0.000000     -0.070060 electrons x Angstroem
 Tr[quadrupol]    -26728.541923

 energy correction for charged system         0.000000 eV
 dipol+quadrupol energy correction           -0.000089 eV
 added-field ion interaction         -0.023969 eV  (added to PSCEN)


 Broyden mixing:
  rms(total) = 0.49467E+01    rms(broyden)= 0.49467E+01
  rms(prec ) = 0.50631E+01
  weight for this iteration     100.00

 eigenvalues of (default mixing * dielectric matrix)
  average eigenvalue GAMMA=   0.9976
  0.9976

 Free energy of the ion-electron system (eV)
  ---------------------------------------------------
  alpha Z        PSCENC =       580.66571684
  Ewald energy   TEWEN  =    181423.47005894
  -Hartree energ DENC   =   -232621.69200785
  -exchange      EXHF   =         0.00000000
  -V(xc)+E(xc)   XCENC  =      2262.85064530
  PAW double counting   =     56604.37709681   -56037.16186813
  entropy T*S    EENTRO =        -0.00000054
  eigenvalues    EBANDS =    -12863.72558960
  atomic energy  EATOM  =     60267.80825831
  Solvation  Ediel_sol  =         0.00000000
  ---------------------------------------------------
  free energy    TOTEN  =      -383.40768992 eV

  energy without entropy =     -383.40768938  energy(sigma->0) =     -383.40768965


--------------------------------------------------------------------------------------------------------




--------------------------------------- Iteration      1(   7)  ---------------------------------------


    POTLOK:  cpu time      4.4187: real time      4.4327
    SETDIJ:  cpu time      2.8616: real time      2.8638
     EDDAV:  cpu time     18.3756: real time     18.3882
       DOS:  cpu time      0.0097: real time      0.0097
    CHARGE:  cpu time      1.9791: real time      1.9801
    MIXING:  cpu time      0.0314: real time      0.0325
    --------------------------------------------
      LOOP:  cpu time     27.6763: real time     27.7071

 eigenvalue-minimisations  :  5634
 total energy-change (2. order) :-0.1278415E+01  (-0.6323116E+01)
 number of electron     644.0000239 magnetization      49.9732862
 augmentation part       16.9744912 magnetization      49.7773077

 DIPCOR: dipole corrections for dipol
 direction  3 min pos     1,
 dipolmoment           0.000000      0.000000      0.058875 electrons x Angstroem
 Tr[quadrupol]    -26736.753720

 energy correction for charged system         0.000000 eV
 dipol+quadrupol energy correction           -0.000063 eV
 added-field ion interaction          0.020143 eV  (added to PSCEN)


 Broyden mixing:
  rms(total) = 0.33820E+01    rms(broyden)= 0.33820E+01
  rms(prec ) = 0.34507E+01
  weight for this iteration     100.00

 eigenvalues of (default mixing * dielectric matrix)
  average eigenvalue GAMMA=   1.0361
  1.4883  0.5840

 Free energy of the ion-electron system (eV)
  ---------------------------------------------------
  alpha Z        PSCENC =       580.70985512
  Ewald energy   TEWEN  =    181423.47005894
  -Hartree energ DENC   =   -233279.61116876
  -exchange      EXHF   =         0.00000000
  -V(xc)+E(xc)   XCENC  =      2269.48834581
  PAW double counting   =     63851.31672894   -63264.13128611
  entropy T*S    EENTRO =        -0.00000000
  eigenvalues    EBANDS =    -12233.73689677
  atomic energy  EATOM  =     60267.80825831
  Solvation  Ediel_sol  =         0.00000000
  ---------------------------------------------------
  free energy    TOTEN  =      -384.68610452 eV

  energy without entropy =     -384.68610452  energy(sigma->0) =     -384.68610452


--------------------------------------------------------------------------------------------------------




--------------------------------------- Iteration      1(   8)  ---------------------------------------


    POTLOK:  cpu time      4.4155: real time      4.4295
    SETDIJ:  cpu time      2.8350: real time      2.8373
     EDDAV:  cpu time     18.0168: real time     18.0291
       DOS:  cpu time      0.0025: real time      0.0025
    CHARGE:  cpu time      1.9725: real time      1.9735
    MIXING:  cpu time      0.0283: real time      0.0283
    --------------------------------------------
      LOOP:  cpu time     27.2706: real time     27.3000

 eigenvalue-minimisations  :  5544
 total energy-change (2. order) : 0.9764180E+00  (-0.1064046E+01)
 number of electron     644.0000240 magnetization      40.5980000
 augmentation part       19.9732792 magnetization      40.3965401

 DIPCOR: dipole corrections for dipol
 direction  3 min pos     1,
 dipolmoment           0.000000      0.000000     -0.023621 electrons x Angstroem
 Tr[quadrupol]    -26736.411145

 energy correction for charged system         0.000000 eV
 dipol+quadrupol energy correction           -0.000010 eV
 added-field ion interaction         -0.008081 eV  (added to PSCEN)


 Broyden mixing:
  rms(total) = 0.16192E+01    rms(broyden)= 0.16192E+01
  rms(prec ) = 0.16243E+01
  weight for this iteration     100.00

 eigenvalues of (default mixing * dielectric matrix)
  average eigenvalue GAMMA=   1.2375
  2.2370  0.8452  0.6303

 Free energy of the ion-electron system (eV)
  ---------------------------------------------------
  alpha Z        PSCENC =       580.68168365
  Ewald energy   TEWEN  =    181423.47005894
  -Hartree energ DENC   =   -233078.95220981
  -exchange      EXHF   =         0.00000000
  -V(xc)+E(xc)   XCENC  =      2264.28997960
  PAW double counting   =     69407.16388745   -68846.60704420
  entropy T*S    EENTRO =        -0.00000000
  eigenvalues    EBANDS =    -12401.56430046
  atomic energy  EATOM  =     60267.80825831
  Solvation  Ediel_sol  =         0.00000000
  ---------------------------------------------------
  free energy    TOTEN  =      -383.70968655 eV

  energy without entropy =     -383.70968655  energy(sigma->0) =     -383.70968655


--------------------------------------------------------------------------------------------------------




--------------------------------------- Iteration      1(   9)  ---------------------------------------


    POTLOK:  cpu time      4.4052: real time      4.4083
    SETDIJ:  cpu time      2.8967: real time      2.8989
     EDDAV:  cpu time     18.8100: real time     18.8219
       DOS:  cpu time      0.0078: real time      0.0078
    CHARGE:  cpu time      1.9866: real time      1.9869
    MIXING:  cpu time      0.0269: real time      0.0282
    --------------------------------------------
      LOOP:  cpu time     28.1331: real time     28.1521

 eigenvalue-minimisations  :  5850
 total energy-change (2. order) :-0.3280454E+01  (-0.3089378E+00)
 number of electron     644.0000240 magnetization      34.5710587
 augmentation part       21.2564932 magnetization      34.3306639

 DIPCOR: dipole corrections for dipol
 direction  3 min pos     1,
 dipolmoment           0.000000      0.000000     -0.012778 electrons x Angstroem
 Tr[quadrupol]    -26738.008917

 energy correction for charged system         0.000000 eV
 dipol+quadrupol energy correction           -0.000003 eV
 added-field ion interaction         -0.004372 eV  (added to PSCEN)


 Broyden mixing:
  rms(total) = 0.11164E+01    rms(broyden)= 0.11164E+01
  rms(prec ) = 0.11305E+01
  weight for this iteration     100.00

 eigenvalues of (default mixing * dielectric matrix)
  average eigenvalue GAMMA=   1.1965
  2.3632  1.1299  0.6464  0.6464

 Free energy of the ion-electron system (eV)
  ---------------------------------------------------
  alpha Z        PSCENC =       580.68540035
  Ewald energy   TEWEN  =    181423.47005894
  -Hartree energ DENC   =   -233091.16675169
  -exchange      EXHF   =         0.00000000
  -V(xc)+E(xc)   XCENC  =      2262.29607983
  PAW double counting   =     73044.14042757   -72493.53184898
  entropy T*S    EENTRO =        -0.00000000
  eigenvalues    EBANDS =    -12380.69176450
  atomic energy  EATOM  =     60267.80825831
  Solvation  Ediel_sol  =         0.00000000
  ---------------------------------------------------
  free energy    TOTEN  =      -386.99014019 eV

  energy without entropy =     -386.99014019  energy(sigma->0) =     -386.99014019


--------------------------------------------------------------------------------------------------------




--------------------------------------- Iteration      1(  10)  ---------------------------------------


    POTLOK:  cpu time      4.4442: real time      4.4581
    SETDIJ:  cpu time      2.8531: real time      2.8561
     EDDAV:  cpu time     17.6830: real time     17.6937
       DOS:  cpu time      0.0049: real time      0.0049
    CHARGE:  cpu time      1.9711: real time      1.9726
    MIXING:  cpu time      0.0392: real time      0.0392
    --------------------------------------------
      LOOP:  cpu time     26.9955: real time     27.0246

 eigenvalue-minimisations  :  5364
 total energy-change (2. order) :-0.2171643E+01  (-0.1001629E+00)
 number of electron     644.0000239 magnetization      25.4857614
 augmentation part       20.6610313 magnetization      25.2769605

 DIPCOR: dipole corrections for dipol
 direction  3 min pos     1,
 dipolmoment           0.000000      0.000000     -0.009410 electrons x Angstroem
 Tr[quadrupol]    -26739.069821

 energy correction for charged system         0.000000 eV
 dipol+quadrupol energy correction           -0.000002 eV
 added-field ion interaction         -0.003219 eV  (added to PSCEN)


 Broyden mixing:
  rms(total) = 0.89091E+00    rms(broyden)= 0.89091E+00
  rms(prec ) = 0.90821E+00
  weight for this iteration     100.00

 eigenvalues of (default mixing * dielectric matrix)
  average eigenvalue GAMMA=   1.2079
  2.4989  1.5332  0.7238  0.7238  0.5598

 Free energy of the ion-electron system (eV)
  ---------------------------------------------------
  alpha Z        PSCENC =       580.68655422
  Ewald energy   TEWEN  =    181423.47005894
  -Hartree energ DENC   =   -233155.52030643
  -exchange      EXHF   =         0.00000000
  -V(xc)+E(xc)   XCENC  =      2261.93786272
  PAW double counting   =     73188.82681462   -72635.54732186
  entropy T*S    EENTRO =        -0.00000000
  eigenvalues    EBANDS =    -12320.82370375
  atomic energy  EATOM  =     60267.80825831
  Solvation  Ediel_sol  =         0.00000000
  ---------------------------------------------------
  free energy    TOTEN  =      -389.16178324 eV

  energy without entropy =     -389.16178324  energy(sigma->0) =     -389.16178324


--------------------------------------------------------------------------------------------------------




--------------------------------------- Iteration      1(  11)  ---------------------------------------


    POTLOK:  cpu time      4.4625: real time      4.4767
    SETDIJ:  cpu time      2.8776: real time      2.8799
     EDDAV:  cpu time     17.5382: real time     17.5495
       DOS:  cpu time      0.0029: real time      0.0029
    CHARGE:  cpu time      1.9628: real time      1.9641
    MIXING:  cpu time      0.0327: real time      0.0326
    --------------------------------------------
      LOOP:  cpu time     26.8766: real time     26.9058

 eigenvalue-minimisations  :  5352
 total energy-change (2. order) :-0.2723180E+01  (-0.1046876E+00)
 number of electron     644.0000240 magnetization      11.2646858
 augmentation part       20.1704504 magnetization      11.1293789

 DIPCOR: dipole corrections for dipol
 direction  3 min pos     1,
 dipolmoment           0.000000      0.000000     -0.001306 electrons x Angstroem
 Tr[quadrupol]    -26740.298243

 energy correction for charged system         0.000000 eV
 dipol+quadrupol energy correction           -0.000000 eV
 added-field ion interaction         -0.000447 eV  (added to PSCEN)


 Broyden mixing:
  rms(total) = 0.64993E+00    rms(broyden)= 0.64993E+00
  rms(prec ) = 0.66262E+00
  weight for this iteration     100.00

 eigenvalues of (default mixing * dielectric matrix)
  average eigenvalue GAMMA=   1.3970
  3.5291  2.1201  0.9550  0.6600  0.6600  0.4576

 Free energy of the ion-electron system (eV)
  ---------------------------------------------------
  alpha Z        PSCENC =       580.68932827
  Ewald energy   TEWEN  =    181423.47005894
  -Hartree energ DENC   =   -233216.63264040
  -exchange      EXHF   =         0.00000000
  -V(xc)+E(xc)   XCENC  =      2261.03719664
  PAW double counting   =     73108.67822767   -72552.86223275
  entropy T*S    EENTRO =        -0.00000000
  eigenvalues    EBANDS =    -12264.07316014
  atomic energy  EATOM  =     60267.80825831
  Solvation  Ediel_sol  =         0.00000000
  ---------------------------------------------------
  free energy    TOTEN  =      -391.88496346 eV

  energy without entropy =     -391.88496346  energy(sigma->0) =     -391.88496346


--------------------------------------------------------------------------------------------------------




--------------------------------------- Iteration      1(  12)  ---------------------------------------


    POTLOK:  cpu time      4.4751: real time      4.4881
    SETDIJ:  cpu time      2.9105: real time      2.9128
     EDDAV:  cpu time     18.2629: real time     18.2742
       DOS:  cpu time      0.0163: real time      0.0164
    CHARGE:  cpu time      1.9698: real time      1.9711
    MIXING:  cpu time      0.0336: real time      0.0336
    --------------------------------------------
      LOOP:  cpu time     27.6682: real time     27.6962

 eigenvalue-minimisations  :  5670
 total energy-change (2. order) :-0.2796349E+01  (-0.8784533E-01)
 number of electron     644.0000239 magnetization       5.0080777
 augmentation part       20.2441347 magnetization       4.9644653

 DIPCOR: dipole corrections for dipol
 direction  3 min pos     1,
 dipolmoment           0.000000      0.000000     -0.012749 electrons x Angstroem
 Tr[quadrupol]    -26741.899348

 energy correction for charged system         0.000000 eV
 dipol+quadrupol energy correction           -0.000003 eV
 added-field ion interaction         -0.004362 eV  (added to PSCEN)


 Broyden mixing:
  rms(total) = 0.44762E+00    rms(broyden)= 0.44762E+00
  rms(prec ) = 0.45243E+00
  weight for this iteration     100.00

 eigenvalues of (default mixing * dielectric matrix)
  average eigenvalue GAMMA=   1.6755
  5.7899  2.2536  1.1375  0.7559  0.7559  0.6098  0.4262

 Free energy of the ion-electron system (eV)
  ---------------------------------------------------
  alpha Z        PSCENC =       580.68541051
  Ewald energy   TEWEN  =    181423.47005894
  -Hartree energ DENC   =   -233270.96365345
  -exchange      EXHF   =         0.00000000
  -V(xc)+E(xc)   XCENC  =      2259.44578800
  PAW double counting   =     72991.84327916   -72435.81075137
  entropy T*S    EENTRO =        -0.00000000
  eigenvalues    EBANDS =    -12211.15970286
  atomic energy  EATOM  =     60267.80825831
  Solvation  Ediel_sol  =         0.00000000
  ---------------------------------------------------
  free energy    TOTEN  =      -394.68131277 eV

  energy without entropy =     -394.68131277  energy(sigma->0) =     -394.68131277


--------------------------------------------------------------------------------------------------------




--------------------------------------- Iteration      1(  13)  ---------------------------------------


    POTLOK:  cpu time      4.4271: real time      4.4431
    SETDIJ:  cpu time      2.8526: real time      2.8549
     EDDAV:  cpu time     19.0184: real time     19.0313
       DOS:  cpu time      0.0026: real time      0.0026
    CHARGE:  cpu time      1.9715: real time      1.9726
    MIXING:  cpu time      0.0317: real time      0.0317
    --------------------------------------------
      LOOP:  cpu time     28.3040: real time     28.3362

 eigenvalue-minimisations  :  5880
 total energy-change (2. order) :-0.6641658E+00  (-0.2446027E-01)
 number of electron     644.0000240 magnetization       1.9450411
 augmentation part       20.3237934 magnetization       1.9260927

 DIPCOR: dipole corrections for dipol
 direction  3 min pos     1,
 dipolmoment           0.000000      0.000000     -0.002634 electrons x Angstroem
 Tr[quadrupol]    -26742.548183

 energy correction for charged system         0.000000 eV
 dipol+quadrupol energy correction           -0.000000 eV
 added-field ion interaction         -0.000901 eV  (added to PSCEN)


 Broyden mixing:
  rms(total) = 0.28599E+00    rms(broyden)= 0.28599E+00
  rms(prec ) = 0.28993E+00
  weight for this iteration     100.00

 eigenvalues of (default mixing * dielectric matrix)
  average eigenvalue GAMMA=   1.8208
  7.0655  2.5774  1.6536  0.8832  0.7089  0.6414  0.6117  0.4250

 Free energy of the ion-electron system (eV)
  ---------------------------------------------------
  alpha Z        PSCENC =       580.68887378
  Ewald energy   TEWEN  =    181423.47005894
  -Hartree energ DENC   =   -233293.26520755
  -exchange      EXHF   =         0.00000000
  -V(xc)+E(xc)   XCENC  =      2258.82096558
  PAW double counting   =     72712.41570348   -72156.56782405
  entropy T*S    EENTRO =        -0.00000000
  eigenvalues    EBANDS =    -12188.71630702
  atomic energy  EATOM  =     60267.80825831
  Solvation  Ediel_sol  =         0.00000000
  ---------------------------------------------------
  free energy    TOTEN  =      -395.34547853 eV

  energy without entropy =     -395.34547853  energy(sigma->0) =     -395.34547853


--------------------------------------------------------------------------------------------------------




--------------------------------------- Iteration      1(  14)  ---------------------------------------


    POTLOK:  cpu time      4.4084: real time      4.4217
    SETDIJ:  cpu time      2.8806: real time      2.8835
     EDDAV:  cpu time     18.5712: real time     18.5836
       DOS:  cpu time      0.0031: real time      0.0031
    CHARGE:  cpu time      1.9665: real time      1.9682
    MIXING:  cpu time      0.0323: real time      0.0321
    --------------------------------------------
      LOOP:  cpu time     27.8620: real time     27.8921

 eigenvalue-minimisations  :  5748
 total energy-change (2. order) :-0.2641827E+00  (-0.1383826E-01)
 number of electron     644.0000239 magnetization       0.7047820
 augmentation part       20.4790193 magnetization       0.6932474

 DIPCOR: dipole corrections for dipol
 direction  3 min pos     1,
 dipolmoment           0.000000      0.000000     -0.003346 electrons x Angstroem
 Tr[quadrupol]    -26742.569509

 energy correction for charged system         0.000000 eV
 dipol+quadrupol energy correction           -0.000000 eV
 added-field ion interaction         -0.001145 eV  (added to PSCEN)


 Broyden mixing:
  rms(total) = 0.12007E+00    rms(broyden)= 0.12007E+00
  rms(prec ) = 0.12879E+00
  weight for this iteration     100.00

 eigenvalues of (default mixing * dielectric matrix)
  average eigenvalue GAMMA=   1.8641
[...]
  283                  fftbas_plan_mpi                     145.891637              37062   8
  284                    dfftw_execute                        57.983716           111186   9
  285                    map_forward                          68.264481            74124   9
  286                      map_gather                            9.951064          37062  10
  287                      m_alltoallv_z                        27.146265          37062  10
  288                      map_scatter                          14.747935          37062  10
  289            rpromu                               24.024431                     9396   5
  290              crrexp_mul_wave                       7.661097                2742588   6
  291              rpromu_gemm                           7.762041                 695304   6
  292              m_sumb_d                              3.206357                  37062   6
  293          m_sumb_d                             12.953243                        290   4
  294        m_sumb_d                              0.172088                          203   3
  295        fft3d_mpi                            17.586191                         2378   3
  296          fftbrc_mpi                           16.651767                       2378   4
  297            fftbas_plan_mpi                      16.644347                     2378   5
  298              dfftw_execute                         3.701608                   7134   6
  299              map_forward                           5.646397                   2320   6
  300                map_gather                            0.595144                 1160   7
  301                m_alltoallv_z                         4.294283                 1160   7
  302                map_scatter                           0.731724                 1160   7
  303              map_backward                          5.808208                   2436   6
  304                map_gather                            0.793502                 1218   7
  305                m_alltoallv_z                         4.072308                 1218   7
  306                map_scatter                           0.915450                 1218   7
  307        forhar                                9.344532                           58   3
  308          m_sumb_d                              0.118380                         58   4
  309        strehar                               0.265474                           29   3
  310          m_sumb_d                              0.046416                         29   4
  311        chggra                                0.876050                           29   3
  312          fft3d_mpi                             0.594958                         87   4
  313            fftbrc_mpi                            0.564965                       87   5
  314              fftbas_plan_mpi                       0.564672                     87   6
  315                dfftw_execute                         0.128568                  261   7
  316                map_backward                          0.122542                   58   7
  317                  map_gather                            0.021222                 29   8
  318                  m_alltoallv_z                         0.077475                 29   8
  319                  map_scatter                           0.023158                 29   8
  320                map_forward                           0.259662                  116   7
  321                  map_gather                            0.043461                 58   8
  322                  m_alltoallv_z                         0.176007                 58   8
  323                  map_scatter                           0.038929                 58   8
  324          m_sumb_d                              0.003568                         58   4
  325          pothar                                0.053602                         29   4
  326            m_sumb_d                              0.012630                       29   5
  327        brmix                                10.955528                           29   3
  328          m_sumb_d                              0.071946                        174   4
  329          brpre                                 0.010286                         58   4
  330          setg0                                 0.132194                         29   4
  331          broyd                                 0.281246                         29   4
  332            m_sumb_d                              0.055994                      414   5
  333            brget                                 0.063196                     1353   5
  334            brsav                                 0.024575                      361   5
  335          m_bcast_z                            10.280769                         29   4
  336        m_bcast_d                             0.021969                           58   3
  337      potlok                              127.368150                             29   2
  338        fft3d_mpi                            18.094424                         2494   3
  339          fftbrc_mpi                           17.087716                       2494   4
  340            fftbas_plan_mpi                      17.079327                     2494   5
  341              dfftw_execute                         3.864925                   7482   6
  342              map_forward                           5.848005                   2552   6
  343                map_gather                            0.649899                 1334   7
  344                m_alltoallv_z                         4.375282                 1334   7
  345                map_scatter                           0.796129                 1334   7
  346              map_backward                          5.816788                   2436   6
  347                map_gather                            0.807592                 1218   7
  348                m_alltoallv_z                         4.078534                 1218   7
  349                map_scatter                           0.904715                 1218   7
  350        m_sumb_d                              0.233021                          232   3
  351        fewald                                0.040290                           58   3
  352          rsp                                   0.036796                         58   4
  353          rcp                                   0.002591                         58   4
  354        pothar                                0.055050                           29   3
  355          m_sumb_d                              0.011967                         29   4
  356        m_bcast_d                             0.139417                           58   3
  357      potlok_metagga                        0.000103                             29   2
  358      set_dd_magatom                        0.000027                             29   2
  359      set_dd_paw                           81.300356                             29   2
  360        set_rsgf_all                          0.000043                           29   3
  361        m_sumb_d                             81.292159                          232   3
  362      wavpre_noio                           3.127177                             28   2
  363        stufak                                2.762177                           28   3
  364      densta                                0.001658                              1   2
  365        m_sumb_d                              0.001075                           10   3
 
 Flat profile
 ============
 
             routine name                   CPU           calls
 ---------------------------------------------------------------
 ggemm                                1527.170115       72093
 m_sumb_d                             1046.126928      663622
 potlok                               1016.596681         270
 dfftw_execute                         603.886660     1174398
 m_alltoallv_z                         385.957683      392488
 eddav                                 323.285972         245
 orth1                                 298.283072      164229
 m_alltoall_d                          288.827610      802084
 set_charge                            263.139400         241
 fftbas_plan_mpi                       211.134111      391466
 fftwav_mpi                            204.344936      258116
 map_scatter                           155.876585      392488
 map_gather                            142.346504      392488
 vhamil                                127.608778      106672
 map_forward                           122.083443      542486
 force_and_stress                      108.687216          29
 total_time                             89.261247           1
 lapack                                 58.234507       54453
 lincom                                 50.891984         548
 rpromu_gemm                            31.354858     3599434
 m_bcast_z                              30.334543       57980
 crrexp_mul_work_add                    30.174892     7893728
 gemm                                   27.790185     3864206
 crrexp_mul_wave                        25.818920     9280784
 eccp                                   25.203878       34790
 w1_copy                                22.052928      320016
 rpromu                                 20.066285       48641
 pw_charge                              19.019444       26028
 racc0mu                                18.188394       52219
 redis_pw                               16.686158      286322
 setdij_                                16.564803        1025
 fftext_mpi                             13.267550      106672
 fft3d_mpi                              12.032184      391466
 forhar                                  9.226152          58
 kinhamil                                8.172107      106672
 apply_precond                           7.697850       71882
 m_bcast_d                               6.877559      109621
 augmentation_charge                     6.724166         241
 elmin                                   4.606945          29
 forloc                                  4.563251          29
 redis_proj                              4.395993      358262
 rspher_all                              4.283966         378
 setup_precond                           4.079525       34790
 overl                                   3.903114      178612
 stufak                                  2.863940          29
 map_backward                            2.653835      240446
 phaser                                  2.617990         867
 overl1                                  2.067244      106672
 hamiltmu                                1.848287       54453
 brmix                                   1.640265         241
 newband                                 1.334934       54943
 fftbas_mpi                              1.219770      364788
 setg0                                   1.146058         299
 racc0                                   1.135928        2234
 choleski                                1.085488          58
 rpro1                                   1.035184        1744
 broyd                                   0.978617         241
 soft_charge                             0.770559         241
 raccmu_                                 0.700974       54453
 rpro_isp                                0.512300         377
 pothar                                  0.441711         299
 brget                                   0.437113        9010
 rsp                                     0.396483         569
 wavpre_noio                             0.365000          28
 strnlr                                  0.315082          29
 strkin                                  0.266127          29
 w1_projall                              0.264646       36813
 chggra                                  0.223922          29
 strehar                                 0.219057          29
 depsum                                  0.202324         241
 strelo                                  0.201029          29
 brsav                                   0.200577        2565
 set_dd_paw                              0.199776         299
 densta                                  0.171489         246
 truncate_high_frequency_w1              0.136121      141462
 fornlr                                  0.099923          29
 orthch                                  0.089530          29
 inisym                                  0.085280           1
 fftbrc_mpi                              0.083373       26678
 fft_gq                                  0.071499         241
 brpre                                   0.067347         482
 rcp                                     0.030591         569
 fewald                                  0.019468         569
 fordep                                  0.006005          29
 vectorpot                               0.003818         242
 potlok_metagga                          0.001136         270
 brgrid                                  0.001035           1
 set_dd_magatom                          0.000553         299
 set_rsgf_all                            0.000551         299
 proall                                  0.000433          29
 posmap                                  0.000336           2
 crpa_reader                             0.000250           1
 rotate_active_occupied_orbital          0.000186          29
 redis_pw_over_bands                     0.000029          29
 ---------------------------------------------------------------
  summed up times    7425.04225611687     
 
 Accumulative profile
 ====================
 
             routine name                   CPU           calls
 ---------------------------------------------------------------
 total_time                           7425.042256           1
 elmin                                6477.835314          29
 eddav                                4294.663659         245
 fft3d_mpi                            1637.274148      391466
 fftbas_plan_mpi                      1623.938821      391466
 ggemm                                1527.170115       72093
 fftbas_mpi                           1439.884133      364788
 fftwav_mpi                           1259.319046      258116
 potlok                               1192.092163         270
 m_sumb_d                             1046.126928      663622
 set_dd_paw                            848.298986         299
 hamiltmu                              633.906235       54453
 dfftw_execute                         603.886660     1174398
 force_and_stress                      595.889582          29
 map_forward                           577.488042      542486
 set_charge                            472.637614         241
 kinhamil                              407.969432      106672
 fftext_mpi                            399.797325      106672
 m_alltoallv_z                         385.957683      392488
 orth1                                 298.283072      164229
 rpro_isp                              289.967841         377
 m_alltoall_d                          288.827610      802084
 newband                               236.516580       54943
 map_backward                          231.430008      240446
 strnlr                                217.581787          29
 redis_pw                              207.046031      286322
 fftbrc_mpi                            185.357831       26678
 map_scatter                           155.876585      392488
 soft_charge                           155.775455         241
 map_gather                            142.346504      392488
 vhamil                                127.608778      106672
 redis_proj                            102.863731      358262
 raccmu_                                96.479737       54453
 racc0mu                                91.254664       52219
 rpromu                                 89.868951       48641
 fornlr                                 72.548369          29
 lapack                                 58.234507       54453
 w1_projall                             57.137555       36813
 lincom                                 50.891984         548
 rpromu_gemm                            31.354858     3599434
 m_bcast_z                              30.334543       57980
 crrexp_mul_work_add                    30.174892     7893728
 eccp                                   28.317650       34790
 gemm                                   27.790185     3864206
 crrexp_mul_wave                        25.818920     9280784
 proall                                 22.528114          29
 w1_copy                                22.052928      320016
 setdij_                                19.111556        1025
 pw_charge                              19.019444       26028
 depsum                                 18.625749         241
 brmix                                  18.114275         241
 orthch                                 14.040252          29
 augmentation_charge                    11.127753         241
 forhar                                  9.344532          58
 apply_precond                           7.697850       71882
 m_bcast_d                               6.877559      109621
 setup_precond                           5.146882       34790
 forloc                                  4.625667          29
 rspher_all                              4.283966         378
 overl                                   3.903114      178612
 fordep                                  3.210410          29
 wavpre_noio                             3.127177          28
 stufak                                  2.863940          29
 phaser                                  2.617990         867
 racc0                                   2.456855        2234
 overl1                                  2.067244      106672
 fft_gq                                  2.023818         241
 broyd                                   2.002165         241
 rpro1                                   1.759052        1744
 setg0                                   1.146058         299
 choleski                                1.085488          58
 chggra                                  0.876050          29
 densta                                  0.725033         246
 pothar                                  0.573345         299
 fewald                                  0.548807         569
 brget                                   0.437113        9010
 rsp                                     0.396483         569
 strkin                                  0.297013          29
 strelo                                  0.273666          29
 strehar                                 0.265474          29
 brsav                                   0.200577        2565
 truncate_high_frequency_w1              0.136121      141462
 inisym                                  0.085616           1
 brpre                                   0.067347         482
 rcp                                     0.030591         569
 vectorpot                               0.003818         242
 potlok_metagga                          0.001136         270
 brgrid                                  0.001035           1
 set_dd_magatom                          0.000553         299
 set_rsgf_all                            0.000551         299
 posmap                                  0.000336           2
 crpa_reader                             0.000250           1
 rotate_active_occupied_orbital          0.000186          29
 redis_pw_over_bands                     0.000029          29
 ---------------------------------------------------------------
 
Profiling took  20.532424 10.401539  0.010593  0.009869 seconds
Profiling took  21.020637 seconds
