 vasp.6.3.2 27Jun22 (build Jan 03 2024 23:05:41) complex                        
  
 executed on           IFC15_impi date 2024.07.19  02:52:51
 running 1024 mpi-ranks, with    1 threads/rank
 distrk:  each k-point on  256 cores,    4 groups
 distr:  one band on NCORE=  16 cores,   16 groups


--------------------------------------------------------------------------------------------------------


 INCAR:
   ENCUT = 600.00
   EDIFF = 1.00e-06
   EDIFFG = -0.03
   IBRION = 2
   ALGO = Normal
   ISMEAR = 0
   SIGMA = 0.05
   LCHARG = .FALSE.
   LWAVE = .FALSE.
   LREAL = Auto
   NELM = 2000
   NSW = 5000
   NCORE = 16
   KPAR = 4
   ISPIN = 2
   GGA = MK
   PARAM1 = 0.1234
   PARAM2 = 1.0
   AGGAC = 0.0
   LUSE_VDW = .TRUE.
   LASPH = .TRUE.
   LDIPOL = .TRUE.
   DIPOL = 0.5 0.5 0.5
   IDIPOL = 3

 POTCAR:    PAW_PBE C 08Apr2002                   
 POTCAR:    PAW_PBE H 15Jun2001                   
 POTCAR:    PAW_PBE Mo_sv 02Feb2006               
 POTCAR:    PAW_PBE N 08Apr2002                   
 POTCAR:    PAW_PBE S 06Sep2000                   
 -----------------------------------------------------------------------------
|                                                                             |
|           W    W    AA    RRRRR   N    N  II  N    N   GGGG   !!!           |
|           W    W   A  A   R    R  NN   N  II  NN   N  G    G  !!!           |
|           W    W  A    A  R    R  N N  N  II  N N  N  G       !!!           |
|           W WW W  AAAAAA  RRRRR   N  N N  II  N  N N  G  GGG   !            |
|           WW  WW  A    A  R   R   N   NN  II  N   NN  G    G                |
|           W    W  A    A  R    R  N    N  II  N    N   GGGG   !!!           |
|                                                                             |
|     You use a magnetic or noncollinear calculation, but did not specify     |
|     the initial magnetic moment with the MAGMOM tag. Note that a            |
|     default of 1 will be used for all atoms. This ferromagnetic setup       |
|     may break the symmetry of the crystal, in particular it may rule        |
|     out finding an antiferromagnetic solution. Thence, we recommend         |
|     setting the initial magnetic moment manually or verifying carefully     |
|     that this magnetic setup is desired.                                    |
|                                                                             |
 -----------------------------------------------------------------------------

 -----------------------------------------------------------------------------
|                                                                             |
|               ----> ADVICE to this user running VASP <----                  |
|                                                                             |
|     You have switched on vdW-DFT.                                           |
|     This routine was written and supplied by Jiri Klimes. We recommend      |
|     that you carefully read and cite the following publications:            |
|       J. Klimes, D.R. Bowler, A. Michelides                                 |
|          J. Phys.: Cond Matt. 22 022201 (2010)                              |
|       J. Klimes, D.R. Bowler, A. Michelides                                 |
|          Phys. Rev. B. 83, 195131 (2011)                                    |
|     and references therein.                                                 |
|                                                                             |
 -----------------------------------------------------------------------------

 POTCAR:    PAW_PBE C 08Apr2002                   
   SHA256 =  253f7b50bb8d59471dbedb8285d89021f4a42ed1a2c5d38a03a736e69125dd95 C/POTCAR              
   COPYR  = (c) Copyright 08Apr2002 Georg Kresse                                                    
   COPYR  = This file is part of the software VASP. Any use, copying, and all other rights are regul
   COPYR  = If you do not have a valid VASP license, you may not use, copy or distribute this file. 
   VRHFIN =C: s2p2                                                                                  
   LEXCH  = PE                                                                                      
   EATOM  =   147.1560 eV,   10.8157 Ry                                                             
                                                                                                    
   TITEL  = PAW_PBE C 08Apr2002                                                                     
   LULTRA =        F    use ultrasoft PP ?                                                          
   IUNSCR =        1    unscreen: 0-lin 1-nonlin 2-no                                               
   RPACOR =    1.200    partial core radius                                                         
   POMASS =   12.011; ZVAL   =    4.000    mass and valenz                                          
   RCORE  =    1.500    outmost cutoff radius                                                       
   RWIGS  =    1.630; RWIGS  =    0.863    wigner-seitz radius (au A)                               
   ENMAX  =  400.000; ENMIN  =  300.000 eV                                                          
   ICORE  =        2    local potential                                                             
   LCOR   =        T    correct aug charges                                                         
   LPAW   =        T    paw PP                                                                      
   EAUG   =  644.873                                                                                
   DEXC   =    0.000                                                                                
   RMAX   =    1.529    core radius for proj-oper                                                   
   RAUG   =    1.300    factor for augmentation sphere                                              
   RDEP   =    1.501    radius for radial grids                                                     
   RDEPT  =    1.300    core radius for aug-charge                                                  
                                                                                                    
   Atomic configuration                                                                             
    4 entries                                                                                       
     n  l   j            E        occ.                                                              
     1  0  0.50      -273.3789   2.0000                                                             
     2  0  0.50       -13.7508   2.0000                                                             
     2  1  0.50        -5.2854   2.0000                                                             
     3  2  1.50        -5.4423   0.0000                                                             
   Description                                                                                      
     l       E           TYP  RCUT    TYP  RCUT                                                     
     0    -13.7508458     23  1.200                                                                 
     0     -8.2022199     23  1.200                                                                 
     1     -5.2854383     23  1.500                                                                 
     1     34.0145650     23  1.500                                                                 
     2     -5.4423304      7  1.500                                                                 
  local pseudopotential read in
  partial core-charges read in
  partial kinetic energy density read in
  atomic valenz-charges read in
  non local Contribution for L=           0  read in
    real space projection operators read in
  non local Contribution for L=           0  read in
    real space projection operators read in
  non local Contribution for L=           1  read in
    real space projection operators read in
  non local Contribution for L=           1  read in
    real space projection operators read in
    PAW grid and wavefunctions read in
 
   number of l-projection  operators is LMAX  =           4
   number of lm-projection operators is LMMAX =           8
 
 POTCAR:    PAW_PBE H 15Jun2001                   
   SHA256 =  030f79b5d3ab3cf0e668861823c8fb652ff669f3e15e46930bd03bfd63a607b6 H/POTCAR              
   COPYR  = (c) Copyright 15Jun2001 Georg Kresse                                                    
   COPYR  = This file is part of the software VASP. Any use, copying, and all other rights are regul
   COPYR  = If you do not have a valid VASP license, you may not use, copy or distribute this file. 
   VRHFIN =H: ultrasoft test                                                                        
   LEXCH  = PE                                                                                      
   EATOM  =    12.4884 eV,    0.9179 Ry                                                             
                                                                                                    
   TITEL  = PAW_PBE H 15Jun2001                                                                     
   LULTRA =        F    use ultrasoft PP ?                                                          
   IUNSCR =        0    unscreen: 0-lin 1-nonlin 2-no                                               
   RPACOR =    0.000    partial core radius                                                         
   POMASS =    1.000; ZVAL   =    1.000    mass and valenz                                          
   RCORE  =    1.100    outmost cutoff radius                                                       
   RWIGS  =    0.700; RWIGS  =    0.370    wigner-seitz radius (au A)                               
   ENMAX  =  250.000; ENMIN  =  200.000 eV                                                          
   RCLOC  =    0.701    cutoff for local pot                                                        
   LCOR   =        T    correct aug charges                                                         
   LPAW   =        T    paw PP                                                                      
   EAUG   =  400.000                                                                                
   RMAX   =    1.123    core radius for proj-oper                                                   
   RAUG   =    1.200    factor for augmentation sphere                                              
   RDEP   =    1.112    radius for radial grids                                                     
   RDEPT  =    0.926    core radius for aug-charge                                                  
                                                                                                    
   Atomic configuration                                                                             
    2 entries                                                                                       
     n  l   j            E        occ.                                                              
     1  0  0.50        -6.4927   1.0000                                                             
     2  1  0.50        -3.4015   0.0000                                                             
   Description                                                                                      
     l       E           TYP  RCUT    TYP  RCUT                                                     
     0     -6.4927494     23  1.100                                                                 
     0      6.8029130     23  1.100                                                                 
     1     -4.0817478     23  1.100                                                                 
  local pseudopotential read in
  atomic valenz-charges read in
  non local Contribution for L=           0  read in
    real space projection operators read in
  non local Contribution for L=           0  read in
    real space projection operators read in
  non local Contribution for L=           1  read in
    real space projection operators read in
    PAW grid and wavefunctions read in
 
   number of l-projection  operators is LMAX  =           3
   number of lm-projection operators is LMMAX =           5
 
 POTCAR:    PAW_PBE Mo_sv 02Feb2006               
   SHA256 =  2731df97e41766cc617548c5a8267718fdef1f509ac6bafa01e745abea2bdfaa Mo_sv/POTCAR          
   COPYR  = (c) Copyright 02Feb2006 Georg Kresse                                                    
   COPYR  = This file is part of the software VASP. Any use, copying, and all other rights are regul
   COPYR  = If you do not have a valid VASP license, you may not use, copy or distribute this file. 
   VRHFIN =Mo: 4p5s4d                                                                               
   LEXCH  = PE                                                                                      
   EATOM  =  1862.2866 eV,  136.8742 Ry                                                             
                                                                                                    
   TITEL  = PAW_PBE Mo_sv 02Feb2006                                                                 
   LULTRA =        F    use ultrasoft PP ?                                                          
   IUNSCR =        1    unscreen: 0-lin 1-nonlin 2-no                                               
   RPACOR =    2.200    partial core radius                                                         
   POMASS =   95.940; ZVAL   =   14.000    mass and valenz                                          
   RCORE  =    2.500    outmost cutoff radius                                                       
   RWIGS  =    2.750; RWIGS  =    1.455    wigner-seitz radius (au A)                               
   ENMAX  =  242.676; ENMIN  =  182.007 eV                                                          
   ICORE  =        3    local potential                                                             
   LCOR   =        T    correct aug charges                                                         
   LPAW   =        T    paw PP                                                                      
   EAUG   =  446.014                                                                                
   DEXC   =    0.000                                                                                
   RMAX   =    2.563    core radius for proj-oper                                                   
   RAUG   =    1.300    factor for augmentation sphere                                              
   RDEP   =    2.641    radius for radial grids                                                     
   RDEPT  =    2.031    core radius for aug-charge                                                  
                                                                                                    
   Atomic configuration                                                                             
   11 entries                                                                                       
     n  l   j            E        occ.                                                              
     1  0  0.50    -19819.0341   2.0000                                                             
     2  0  0.50     -2799.0127   2.0000                                                             
     2  1  1.50     -2502.0276   6.0000                                                             
     3  0  0.50      -476.4449   2.0000                                                             
     3  1  1.50      -379.1496   6.0000                                                             
     3  2  2.50      -220.9367  10.0000                                                             
     4  0  0.50       -64.3378   2.0000                                                             
     5  0  0.50        -4.0862   1.0000                                                             
     4  1  1.50       -38.4773   6.0000                                                             
     4  2  2.50        -3.7535   5.0000                                                             
     4  3  2.50        -1.3606   0.0000                                                             
   Description                                                                                      
     l       E           TYP  RCUT    TYP  RCUT                                                     
     0    -64.3377829     23  2.100                                                                 
     0     -4.0861640     23  2.400                                                                 
     1    -38.4772993     23  2.100                                                                 
     1     13.6058260     23  2.100                                                                 
     2     -3.7534941     23  2.400                                                                 
     2     -5.1140767     23  2.400                                                                 
     3     -4.0817478     23  2.500                                                                 
  local pseudopotential read in
  partial core-charges read in
  partial kinetic energy density read in
  atomic valenz-charges read in
  non local Contribution for L=           0  read in
    real space projection operators read in
  non local Contribution for L=           0  read in
    real space projection operators read in
  non local Contribution for L=           1  read in
    real space projection operators read in
  non local Contribution for L=           1  read in
    real space projection operators read in
  non local Contribution for L=           2  read in
    real space projection operators read in
  non local Contribution for L=           2  read in
    real space projection operators read in
    PAW grid and wavefunctions read in
 
   number of l-projection  operators is LMAX  =           6
   number of lm-projection operators is LMMAX =          18
 
 POTCAR:    PAW_PBE N 08Apr2002                   
   SHA256 =  e053789ff3a61a86a1b75d8a110fcc91f86041011e7b0817c7c99e4e8a6349d7 N/POTCAR              
   COPYR  = (c) Copyright 08Apr2002 Georg Kresse                                                    
   COPYR  = This file is part of the software VASP. Any use, copying, and all other rights are regul
   COPYR  = If you do not have a valid VASP license, you may not use, copy or distribute this file. 
   VRHFIN =N: s2p3                                                                                  
   LEXCH  = PE                                                                                      
   EATOM  =   264.5486 eV,   19.4438 Ry                                                             
                                                                                                    
   TITEL  = PAW_PBE N 08Apr2002                                                                     
   LULTRA =        F    use ultrasoft PP ?                                                          
   IUNSCR =        1    unscreen: 0-lin 1-nonlin 2-no                                               
   RPACOR =    1.200    partial core radius                                                         
   POMASS =   14.001; ZVAL   =    5.000    mass and valenz                                          
   RCORE  =    1.500    outmost cutoff radius                                                       
   RWIGS  =    1.400; RWIGS  =    0.741    wigner-seitz radius (au A)                               
   ENMAX  =  400.000; ENMIN  =  300.000 eV                                                          
   ICORE  =        2    local potential                                                             
   LCOR   =        T    correct aug charges                                                         
   LPAW   =        T    paw PP                                                                      
   EAUG   =  627.112                                                                                
   DEXC   =    0.000                                                                                
   RMAX   =    1.529    core radius for proj-oper                                                   
   RAUG   =    1.300    factor for augmentation sphere                                              
   RDEP   =    1.514    radius for radial grids                                                     
   RDEPT  =    1.338    core radius for aug-charge                                                  
                                                                                                    
   Atomic configuration                                                                             
    4 entries                                                                                       
     n  l   j            E        occ.                                                              
     1  0  0.50      -384.7179   2.0000                                                             
     2  0  0.50       -18.5828   2.0000                                                             
     2  1  0.50        -7.0898   3.0000                                                             
     3  2  1.50        -6.8029   0.0000                                                             
   Description                                                                                      
     l       E           TYP  RCUT    TYP  RCUT                                                     
     0    -18.5828119     23  1.200                                                                 
     0    -13.5018863     23  1.200                                                                 
     1     -7.0897853     23  1.500                                                                 
     1      9.5240782     23  1.500                                                                 
     2     -6.8029130      7  1.500                                                                 
  local pseudopotential read in
  partial core-charges read in
  partial kinetic energy density read in
  atomic valenz-charges read in
  non local Contribution for L=           0  read in
    real space projection operators read in
  non local Contribution for L=           0  read in
    real space projection operators read in
  non local Contribution for L=           1  read in
    real space projection operators read in
  non local Contribution for L=           1  read in
    real space projection operators read in
    PAW grid and wavefunctions read in
 
   number of l-projection  operators is LMAX  =           4
   number of lm-projection operators is LMMAX =           8
 
 POTCAR:    PAW_PBE S 06Sep2000                   
   SHA256 =  0fc7481fb0695f01bdc6462160264c5c84044ae9ec85a907d398b887a2bc3132 S/POTCAR              
   COPYR  = (c) Copyright 06Sep2000 Georg Kresse                                                    
   COPYR  = This file is part of the software VASP. Any use, copying, and all other rights are regul
   COPYR  = If you do not have a valid VASP license, you may not use, copy or distribute this file. 
   VRHFIN =S : s2p4                                                                                 
   LEXCH  = PE                                                                                      
   EATOM  =   276.8230 eV,   20.3459 Ry                                                             
                                                                                                    
   TITEL  = PAW_PBE S 06Sep2000                                                                     
   LULTRA =        F    use ultrasoft PP ?                                                          
   IUNSCR =        1    unscreen: 0-lin 1-nonlin 2-no                                               
   RPACOR =    1.500    partial core radius                                                         
   POMASS =   32.066; ZVAL   =    6.000    mass and valenz                                          
   RCORE  =    1.900    outmost cutoff radius                                                       
   RWIGS  =    2.200; RWIGS  =    1.164    wigner-seitz radius (au A)                               
   ENMAX  =  258.689; ENMIN  =  194.016 eV                                                          
   ICORE  =        2    local potential                                                             
   LCOR   =        T    correct aug charges                                                         
   LPAW   =        T    paw PP                                                                      
   EAUG   =  335.092                                                                                
   DEXC   =    0.000                                                                                
   RMAX   =    1.942    core radius for proj-oper                                                   
   RAUG   =    1.300    factor for augmentation sphere                                              
   RDEP   =    1.954    radius for radial grids                                                     
   RDEPT  =    1.744    core radius for aug-charge                                                  
                                                                                                    
   Atomic configuration                                                                             
    6 entries                                                                                       
     n  l   j            E        occ.                                                              
     1  0  0.50     -2405.8406   2.0000                                                             
     2  0  0.50      -211.7007   2.0000                                                             
     2  1  1.50      -156.4958   6.0000                                                             
     3  0  0.50       -17.2562   2.0000                                                             
     3  1  0.50        -7.0085   4.0000                                                             
     3  2  1.50        -6.8029   0.0000                                                             
   Description                                                                                      
     l       E           TYP  RCUT    TYP  RCUT                                                     
     0    -17.2561641     23  1.900                                                                 
     0    -15.8743224     23  1.900                                                                 
     1     -7.0085400     23  1.900                                                                 
     1     -2.7779785     23  1.900                                                                 
     2     -6.8029130     23  1.900                                                                 
  local pseudopotential read in
  partial core-charges read in
  partial kinetic energy density read in
  atomic valenz-charges read in
  non local Contribution for L=           0  read in
    real space projection operators read in
  non local Contribution for L=           0  read in
    real space projection operators read in
  non local Contribution for L=           1  read in
    real space projection operators read in
  non local Contribution for L=           1  read in
    real space projection operators read in
    PAW grid and wavefunctions read in
 
   number of l-projection  operators is LMAX  =           4
   number of lm-projection operators is LMMAX =           8
 
 Optimization of the real space projectors (new method)

 maximal supplied QI-value         = 25.13
 optimisation between [QCUT,QGAM] = [ 12.32, 24.88] = [ 42.47,173.37] Ry 
 Optimized for a Real-space Cutoff    1.06 Angstroem

   l    n(q)    QCUT    max X(q) W(low)/X(q) W(high)/X(q)  e(spline) 
   0      8    12.315   115.676    0.34E-03    0.18E-03    0.23E-06
   0      8    12.315    87.132    0.34E-03    0.18E-03    0.22E-06
   1      7    12.315     4.429    0.45E-03    0.12E-03    0.18E-06
   1      7    12.315     2.733    0.35E-03    0.97E-04    0.15E-06
 Optimization of the real space projectors (new method)

 maximal supplied QI-value         = 34.20
 optimisation between [QCUT,QGAM] = [ 12.31, 24.97] = [ 42.46,174.58] Ry 
 Optimized for a Real-space Cutoff    1.00 Angstroem

   l    n(q)    QCUT    max X(q) W(low)/X(q) W(high)/X(q)  e(spline) 
   0      7    12.313    19.460    0.14E-03    0.42E-03    0.16E-06
   0      7    12.313    12.209    0.12E-03    0.40E-03    0.16E-06
   1      7    12.313     4.655    0.33E-03    0.59E-03    0.89E-07
 Optimization of the real space projectors (new method)

 maximal supplied QI-value         = 15.12
 optimisation between [QCUT,QGAM] = [ 12.55, 25.10] = [ 44.09,176.36] Ry 
 Optimized for a Real-space Cutoff    1.47 Angstroem

   l    n(q)    QCUT    max X(q) W(low)/X(q) W(high)/X(q)  e(spline) 
   0     11    12.548     3.559    0.18E-04    0.60E-05    0.19E-06
   0     11    12.548    20.730    0.37E-04    0.13E-04    0.98E-07
   1     11    12.548     3.279    0.80E-06    0.70E-06    0.27E-07
   1     11    12.548     4.693    0.72E-04    0.11E-03    0.38E-06
   2     10    12.548    67.616    0.34E-03    0.45E-03    0.54E-06
   2     10    12.548    62.420    0.34E-03    0.45E-03    0.54E-06
 Optimization of the real space projectors (new method)

 maximal supplied QI-value         = 25.13
 optimisation between [QCUT,QGAM] = [ 12.32, 24.88] = [ 42.47,173.37] Ry 
 Optimized for a Real-space Cutoff    1.20 Angstroem

   l    n(q)    QCUT    max X(q) W(low)/X(q) W(high)/X(q)  e(spline) 
   0      9    12.315    79.467    0.14E-03    0.22E-04    0.37E-06
   0      9    12.315    66.151    0.14E-03    0.23E-04    0.36E-06
   1      8    12.315    22.077    0.30E-03    0.54E-03    0.45E-06
   1      8    12.315    15.894    0.30E-03    0.55E-03    0.45E-06
 Optimization of the real space projectors (new method)

 maximal supplied QI-value         = 19.84
 optimisation between [QCUT,QGAM] = [ 12.50, 25.00] = [ 43.76,175.03] Ry 
 Optimized for a Real-space Cutoff    1.06 Angstroem

   l    n(q)    QCUT    max X(q) W(low)/X(q) W(high)/X(q)  e(spline) 
   0      8    12.501   187.594    0.26E-03    0.17E-03    0.97E-07
   0      8    12.501   164.243    0.26E-03    0.17E-03    0.96E-07
   1      7    12.501    67.533    0.50E-03    0.61E-03    0.91E-07
   1      7    12.501    50.729    0.48E-03    0.60E-03    0.90E-07
 -----------------------------------------------------------------------------
|                                                                             |
|               ----> ADVICE to this user running VASP <----                  |
|                                                                             |
|     You enforced a specific xc type in the INCAR file but a different       |
|     type was found in the POTCAR file.                                      |
|     I HOPE YOU KNOW WHAT YOU ARE DOING!                                     |
|                                                                             |
 -----------------------------------------------------------------------------

  PAW_PBE C 08Apr2002                   :
 energy of atom  1       EATOM= -147.1560
 kinetic energy error for atom=    0.0057 (will be added to EATOM!!)
  PAW_PBE H 15Jun2001                   :
 energy of atom  2       EATOM=  -12.4884
 kinetic energy error for atom=    0.0004 (will be added to EATOM!!)
  PAW_PBE Mo_sv 02Feb2006               :
 energy of atom  3       EATOM=-1862.2866
 kinetic energy error for atom=    0.0041 (will be added to EATOM!!)
  PAW_PBE N 08Apr2002                   :
 energy of atom  4       EATOM= -264.5486
 kinetic energy error for atom=    0.0103 (will be added to EATOM!!)
  PAW_PBE S 06Sep2000                   :
 energy of atom  5       EATOM= -276.8230
 kinetic energy error for atom=    0.0009 (will be added to EATOM!!)
 
 
 POSCAR: C  H  Mo N  S
  positions in direct lattice
  velocities in cartesian coordinates
 exchange correlation table for  LEXCH =       43
   RHO(1)=    0.500       N(1)  =     2000
   RHO(2)=  100.500       N(2)  =     4000

 VTST: version 4.1, (05/19/21)

 CHAIN: initializing optimizer
 
 OPT: Using VASP Conjugate-Gradient optimizer
 CHAIN: Read ICHAIN            0
 
 POSCAR: C  H  Mo N  S
  positions in direct lattice
  velocities in cartesian coordinates
 


--------------------------------------------------------------------------------------------------------


 ion  position               nearest neighbor table
   1  0.556  0.543  0.774-   6 1.41   2 1.41 130 1.79
   2  0.636  0.550  0.794-   9 1.09   4 1.39   1 1.41
   3  0.499  0.581  0.830-  11 1.09   6 1.39   5 1.41
   4  0.648  0.573  0.831-  13 1.09   2 1.39   5 1.41
   5  0.579  0.588  0.850-  89 1.38   4 1.41   3 1.41
   6  0.488  0.560  0.793-  12 1.09   3 1.39   1 1.41
   7  0.549  0.633  0.899-  89 1.01
   8  0.654  0.626  0.899-  89 1.01
   9  0.688  0.535  0.779-   2 1.09
  10  0.554  0.412  0.693-  66 1.72  46 1.92
  11  0.445  0.591  0.845-   3 1.09
  12  0.424  0.553  0.779-   6 1.09
  13  0.710  0.577  0.845-   4 1.09
  14  0.731  0.663  0.500- 172 2.41 132 2.41 227 2.41 182 2.41 203 2.41 175 2.41  76 3.16  22 3.16
                            60 3.16  70 3.16  71 3.16  34 3.17
  15  0.865  0.330  0.330- 239 2.41 134 2.41 196 2.41 180 2.41 167 2.41 140 2.41  84 3.16  25 3.16
                            35 3.16  50 3.16  28 3.17  75 3.17
  16  0.865  0.328  0.670- 139 2.41 177 2.41 178 2.41 168 2.41 133 2.41 176 2.41  24 3.16  49 3.16
                            83 3.17  26 3.17  74 3.17  43 3.17
  17  0.932  0.063  0.500- 194 2.41 225 2.41 201 2.41 218 2.41 138 2.41 215 2.41  67 3.16  34 3.16
                            77 3.16  29 3.16  45 3.16  60 3.17
  18  0.264  0.128  0.669- 164 2.40 217 2.41 211 2.41 205 2.41 208 2.41 120 2.42  66 3.13  32 3.16
                            41 3.16  48 3.16  63 3.17  85 3.18
  19  0.064  0.728  0.670- 213 2.41 234 2.41 231 2.41 186 2.41 237 2.41 136 2.41  23 3.16  24 3.16
                            63 3.16  26 3.17  41 3.17  57 3.17
  20  0.131  0.463  0.500- 163 2.41 110 2.41 113 2.41 116 2.41 121 2.41 147 2.41  54 3.16  29 3.16
                            21 3.16  40 3.16  67 3.17  51 3.17
  21  0.131  0.663  0.500- 116 2.41 113 2.41 150 2.41 153 2.41 119 2.41 212 2.41  61 3.16  40 3.16
                            20 3.16  22 3.17  39 3.17  54 3.17
  22  0.931  0.663  0.500- 119 2.41 212 2.41 169 2.41 181 2.41 182 2.41 132 2.41  14 3.16  70 3.16
                            39 3.16  21 3.17  34 3.17  40 3.17
  23  0.865  0.729  0.670- 173 2.40 170 2.40 193 2.41 136 2.41 129 2.41 186 2.41  19 3.16  41 3.16
                            64 3.16  31 3.16  26 3.17  46 3.19
  24  0.064  0.528  0.670- 213 2.41 115 2.41 168 2.41 231 2.41 118 2.41 177 2.41  19 3.16  16 3.16
                            53 3.16  26 3.17  57 3.17  43 3.17
  25  0.065  0.530  0.330- 239 2.41 238 2.41 114 2.41 117 2.41 214 2.41 167 2.41  27 3.16  52 3.16
                            28 3.16  15 3.16  35 3.16  65 3.17
  26  0.864  0.528  0.671- 168 2.41 186 2.41 136 2.41 177 2.41 223 2.41 202 2.41  19 3.17  24 3.17
                            16 3.17  23 3.17  74 3.19  46 3.19
  27  0.065  0.730  0.330- 135 2.41 236 2.41 233 2.41 238 2.41 197 2.41 214 2.41  65 3.16  25 3.16
                            35 3.16  42 3.16  62 3.17  36 3.17
  28  0.065  0.330  0.330- 111 2.41 180 2.41 196 2.41 117 2.41 114 2.41 144 2.41  47 3.16  25 3.16
                            50 3.17  15 3.17  44 3.17  52 3.17
  29  0.132  0.263  0.500- 218 2.41 215 2.41 206 2.41 209 2.41 163 2.41 110 2.41  20 3.16  17 3.16
                            51 3.16  45 3.16  67 3.17  55 3.17
  30  0.865  0.930  0.330-  90 2.41  92 2.41 199 2.41 226 2.41 200 2.41 192 2.41  56 3.16  44 3.16
                            50 3.16  36 3.16  59 3.17  42 3.17
  31  0.865  0.929  0.670- 184 2.41 198 2.41 193 2.41 129 2.41 185 2.41 183 2.41  64 3.15  49 3.16
                            32 3.16  41 3.16  58 3.16  23 3.16
  32  0.065  0.128  0.670- 198 2.40 217 2.41 109 2.41 185 2.41 112 2.41 164 2.41  18 3.16  31 3.16
                            41 3.16  43 3.16  49 3.17  48 3.17
  33  0.532  0.263  0.500- 146 2.41 107 2.41 131 2.41 141 2.41 126 2.41 143 2.41  79 3.16  70 3.16
                            55 3.16  38 3.17  71 3.17  68 3.17
  34  0.931  0.863  0.500- 132 2.41 232 2.41 194 2.41 201 2.41 182 2.41 235 2.41  60 3.16  17 3.16
                            39 3.17  14 3.17  22 3.17  45 3.17
  35  0.865  0.530  0.330- 220 2.41 239 2.41 135 2.41 224 2.41 197 2.41 167 2.41  27 3.16  15 3.16
                            25 3.16  75 3.16  36 3.17  69 3.17
  36  0.865  0.730  0.330-  92 2.41 135 2.41 171 2.41 174 2.41 197 2.41 192 2.41  42 3.16  69 3.16
                            30 3.16  35 3.17  56 3.17  27 3.17
  37  0.265  0.130  0.330- 204 2.41 165 2.41 210 2.41 221 2.41 216 2.41 207 2.41  44 3.16  86 3.16
                            62 3.16  47 3.16  42 3.17  88 3.17
  38  0.331  0.063  0.500- 146 2.41 159 2.41 219 2.41 156 2.41 222 2.41 143 2.41  61 3.16  39 3.16
                            45 3.16  55 3.16  68 3.17  33 3.17
  39  0.131  0.863  0.500- 156 2.41 212 2.41 235 2.41 159 2.41 232 2.41 119 2.41  38 3.16  22 3.16
                            61 3.17  34 3.17  45 3.17  21 3.17
  40  0.931  0.463  0.500- 169 2.41 179 2.41 113 2.41 116 2.41 181 2.41 137 2.41  21 3.16  79 3.16
                            67 3.16  20 3.16  70 3.17  22 3.17
  41  0.065  0.928  0.670- 193 2.40 234 2.41 164 2.41 217 2.41 129 2.41 237 2.41  23 3.16  18 3.16
                            31 3.16  63 3.16  32 3.16  19 3.17
  42  0.065  0.930  0.330- 165 2.41  92 2.41 216 2.41 192 2.41 233 2.41 236 2.41  36 3.16  62 3.16
                            27 3.16  44 3.17  37 3.17  30 3.17
  43  0.065  0.328  0.670- 118 2.41 176 2.41 112 2.41 178 2.41 115 2.41 109 2.41  49 3.16  32 3.16
                            53 3.17  16 3.17  24 3.17  48 3.18
  44  0.065  0.130  0.330- 165 2.41 111 2.41  90 2.41 144 2.41 216 2.41 226 2.41  37 3.16  30 3.16
                            50 3.16  42 3.17  28 3.17  47 3.17
  45  0.132  0.063  0.500- 232 2.41 218 2.41 222 2.41 235 2.41 219 2.41 215 2.41  55 3.16  29 3.16
                            17 3.16  38 3.16  39 3.17  34 3.17
  46  0.663  0.528  0.673-  10 1.92 223 2.40 173 2.40  95 2.40 170 2.42 202 2.43 130 2.77  73 3.12
                            64 3.17  23 3.19  26 3.19  66 3.20  74 3.22
  47  0.265  0.330  0.330- 111 2.41 210 2.41 207 2.41 148 2.41 144 2.41 122 2.41  28 3.16  52 3.16
                            88 3.16  72 3.16  37 3.16  44 3.17
  48  0.266  0.328  0.671- 208 2.40 149 2.40 109 2.41 123 2.41 112 2.41 120 2.43  18 3.16  32 3.17
                            43 3.18  53 3.18  73 3.19  66 3.23
  49  0.865  0.128  0.670- 190 2.41 198 2.41 176 2.41 185 2.41 178 2.41 187 2.41  31 3.16  58 3.16
                            16 3.16  83 3.16  43 3.16  32 3.17
  50  0.865  0.130  0.330-  90 2.41 188 2.41 196 2.41 180 2.41 191 2.41 226 2.41  59 3.16  30 3.16
                            44 3.16  15 3.16  84 3.16  28 3.17
  51  0.332  0.463  0.500- 206 2.41 209 2.41  93 2.41  91 2.41 147 2.41 121 2.41  54 3.16  76 3.16
                            71 3.16  29 3.16  20 3.17  55 3.17
  52  0.265  0.530  0.330- 117 2.41 122 2.41 154 2.41 114 2.41 148 2.41 151 2.41  72 3.16  65 3.16
                            47 3.16  78 3.16  25 3.16  28 3.17
  53  0.265  0.529  0.671- 149 2.40 123 2.40 152 2.41 115 2.41 118 2.41 155 2.41  57 3.16  24 3.16
                            43 3.17  87 3.17  48 3.18  73 3.19
  54  0.331  0.663  0.500- 121 2.41 147 2.41 150 2.41  99 2.41  96 2.41 153 2.41  51 3.16  80 3.16
                            20 3.16  61 3.16  76 3.16  21 3.17
  55  0.332  0.263  0.500- 107 2.41 222 2.41 206 2.41 209 2.41 219 2.41 126 2.41  45 3.16  71 3.16
                            33 3.16  38 3.16  29 3.17  51 3.17
  56  0.665  0.730  0.330- 171 2.41 199 2.41 100 2.41  98 2.41 174 2.41 200 2.41  30 3.16  78 3.16
                            72 3.16  69 3.16  59 3.17  36 3.17
  57  0.265  0.728  0.670- 158 2.40 152 2.41 213 2.41 161 2.41 155 2.41 231 2.41  53 3.16  63 3.16
                            87 3.16  82 3.16  24 3.17  19 3.17
  58  0.665  0.929  0.670- 190 2.40 183 2.41 104 2.41 187 2.41 184 2.41 228 2.41  64 3.15  83 3.15
                            49 3.16  31 3.16  87 3.16  82 3.17
  59  0.665  0.930  0.330- 125 2.41 199 2.41 191 2.41 200 2.41 188 2.41 103 2.41  50 3.16  81 3.16
                            78 3.16  84 3.16  56 3.17  30 3.17
  60  0.731  0.863  0.500- 166 2.41 142 2.41 172 2.41 194 2.41 201 2.41 175 2.41  34 3.16  77 3.16
                            80 3.16  14 3.16  76 3.16  17 3.17
  61  0.331  0.863  0.500- 102 2.41 153 2.41 230 2.41 156 2.41 150 2.41 159 2.41  21 3.16  38 3.16
                            54 3.16  39 3.17  68 3.17  80 3.17
  62  0.265  0.930  0.330- 160 2.41 236 2.41 233 2.41 204 2.41 157 2.41 221 2.41  81 3.16  42 3.16
                            37 3.16  86 3.16  65 3.16  27 3.17
  63  0.264  0.927  0.669- 211 2.40 158 2.41 234 2.41 161 2.41 237 2.41 205 2.41  57 3.16  85 3.16
                            41 3.16  19 3.16  18 3.17  82 3.17
  64  0.666  0.730  0.671- 105 2.40 184 2.40 101 2.41 173 2.41 170 2.41 183 2.41  58 3.15  31 3.15
                            73 3.15  23 3.16  46 3.17  87 3.17
  65  0.265  0.730  0.330- 154 2.41 238 2.41 160 2.41 151 2.41 214 2.41 157 2.41  27 3.16  78 3.16
                            52 3.16  62 3.16  25 3.17  81 3.17
  66  0.466  0.321  0.666-  10 1.72  97 2.36  95 2.38 108 2.40 120 2.41 208 2.43  85 3.08  74 3.09
                            18 3.13  46 3.20  48 3.23  73 3.31
  67  0.931  0.263  0.500- 179 2.41 110 2.41 163 2.41 225 2.41 137 2.41 138 2.41  17 3.16  79 3.16
                            40 3.16  77 3.16  29 3.17  20 3.17
  68  0.531  0.063  0.500- 146 2.41 230 2.41 195 2.41 189 2.41 143 2.41 102 2.41  77 3.16  80 3.16
                            38 3.17  61 3.17  33 3.17  79 3.17
  69  0.665  0.530  0.330- 220 2.41  94 2.41 171 2.41 224 2.41 174 2.41 229 2.41  72 3.16  88 3.16
                            36 3.16  56 3.16  75 3.17  35 3.17
  70  0.731  0.463  0.500- 141 2.41 169 2.41 181 2.41 203 2.41 131 2.41 227 2.41  71 3.16  22 3.16
                            33 3.16  14 3.16  40 3.17  79 3.17
  71  0.531  0.463  0.500- 227 2.41 203 2.41  91 2.41 107 2.41  93 2.41 126 2.41  51 3.16  70 3.16
                            55 3.16  76 3.16  14 3.16  33 3.17
  72  0.465  0.530  0.330-  94 2.41 148 2.41 100 2.41 122 2.41  98 2.41 229 2.41  69 3.16  52 3.16
                            88 3.16  56 3.16  47 3.16  78 3.17
  73  0.467  0.530  0.675- 105 2.39 123 2.40 101 2.43  95 2.43 149 2.44 130 2.58  46 3.12  64 3.15
                            87 3.17  53 3.19  48 3.19  66 3.31
  74  0.663  0.325  0.669- 108 2.40 133 2.40 139 2.41 202 2.41  97 2.42 223 2.44  66 3.09  83 3.14
                            85 3.15  16 3.17  26 3.19  46 3.22
  75  0.665  0.330  0.330- 220 2.41 224 2.41 134 2.41 106 2.41 124 2.41 140 2.41  84 3.16  86 3.16
                            35 3.16  88 3.17  69 3.17  15 3.17
  76  0.532  0.663  0.500-  91 2.41  96 2.41 172 2.41  99 2.41  93 2.41 175 2.41  80 3.16  14 3.16
                            51 3.16  71 3.16  54 3.16  60 3.16
  77  0.731  0.063  0.500- 142 2.41 195 2.41 225 2.41 189 2.41 138 2.41 166 2.41  60 3.16  68 3.16
                            17 3.16  67 3.16  79 3.17  80 3.17
  78  0.465  0.730  0.330- 125 2.41 100 2.41 151 2.41 154 2.41  98 2.41 103 2.41  56 3.16  65 3.16
                            52 3.16  59 3.16  72 3.17  81 3.17
  79  0.731  0.263  0.500- 179 2.41 137 2.41 195 2.41 141 2.41 189 2.41 131 2.41  33 3.16  40 3.16
                            67 3.16  77 3.17  70 3.17  68 3.17
  80  0.531  0.863  0.500- 102 2.41 142 2.41  99 2.41 230 2.41 166 2.41  96 2.41  76 3.16  54 3.16
                            60 3.16  68 3.16  77 3.17  61 3.17
  81  0.465  0.930  0.330- 125 2.41 160 2.41 127 2.41 103 2.41 157 2.41 162 2.41  62 3.16  59 3.16
                            86 3.16  84 3.17  78 3.17  65 3.17
  82  0.465  0.928  0.670- 145 2.40 104 2.40 128 2.40 228 2.41 158 2.41 161 2.41  85 3.14  87 3.14
                            83 3.16  57 3.16  58 3.17  63 3.17
  83  0.665  0.128  0.669- 139 2.40 190 2.41 187 2.41 145 2.41 133 2.41 128 2.41  74 3.14  58 3.15
                            85 3.16  49 3.16  82 3.16  16 3.17
  84  0.665  0.130  0.330- 127 2.41 188 2.41 134 2.41 191 2.41 162 2.41 140 2.41  15 3.16  75 3.16
                            59 3.16  50 3.16  81 3.17  86 3.17
  85  0.465  0.126  0.669- 108 2.40 128 2.40 145 2.40 205 2.41 211 2.41  97 2.42  66 3.08  82 3.14
                            74 3.15  83 3.16  63 3.16  18 3.18
  86  0.465  0.130  0.330- 127 2.41 106 2.41 221 2.41 204 2.41 124 2.41 162 2.41  75 3.16  88 3.16
                            37 3.16  81 3.16  62 3.16  84 3.17
  87  0.465  0.729  0.670- 105 2.38 104 2.40 101 2.40 228 2.40 155 2.41 152 2.41  82 3.14  57 3.16
                            58 3.16  73 3.17  53 3.17  64 3.17
  88  0.465  0.330  0.330-  94 2.41 210 2.41 106 2.41 124 2.41 207 2.41 229 2.41  86 3.16  72 3.16
                            47 3.16  69 3.16  75 3.17  37 3.17
  89  0.588  0.604  0.887-   7 1.01   8 1.01   5 1.38
  90  0.932  0.063  0.287-  50 2.41  30 2.41  44 2.41
  91  0.465  0.530  0.543-  76 2.41  71 2.41  51 2.41
  92  0.932  0.863  0.287-  42 2.41  30 2.41  36 2.41
  93  0.465  0.530  0.457-  51 2.41  76 2.41  71 2.41
  94  0.532  0.463  0.287-  88 2.41  72 2.41  69 2.41
  95  0.532  0.465  0.629-  66 2.38  46 2.40  73 2.43
  96  0.465  0.730  0.543-  76 2.41  54 2.41  80 2.41
  97  0.533  0.257  0.624-  66 2.36  85 2.42  74 2.42
  98  0.532  0.663  0.373-  72 2.41  56 2.41  78 2.41
  99  0.465  0.730  0.457-  76 2.41  80 2.41  54 2.41
 100  0.532  0.663  0.287-  78 2.41  72 2.41  56 2.41
 101  0.531  0.659  0.629-  87 2.40  64 2.41  73 2.43
 102  0.465  0.930  0.543-  80 2.41  61 2.41  68 2.41
 103  0.532  0.863  0.373-  81 2.41  78 2.41  59 2.41
 104  0.532  0.863  0.713-  82 2.40  87 2.40  58 2.41
 105  0.534  0.669  0.714-  87 2.38  73 2.39  64 2.40
 106  0.532  0.263  0.287-  88 2.41  86 2.41  75 2.41
 107  0.465  0.330  0.457-  33 2.41  71 2.41  55 2.41
 108  0.530  0.259  0.712-  85 2.40  74 2.40  66 2.40
 109  0.132  0.261  0.713-  48 2.41  32 2.41  43 2.41
 110  0.065  0.330  0.457-  20 2.41  67 2.41  29 2.41
 111  0.132  0.263  0.287-  28 2.41  47 2.41  44 2.41
 112  0.133  0.263  0.627-  43 2.41  32 2.41  48 2.41
 113  0.065  0.530  0.543-  21 2.41  40 2.41  20 2.41
 114  0.132  0.463  0.373-  52 2.41  25 2.41  28 2.41
 115  0.131  0.461  0.714-  24 2.41  53 2.41  43 2.41
 116  0.065  0.530  0.457-  21 2.41  40 2.41  20 2.41
 117  0.132  0.463  0.287-  52 2.41  25 2.41  28 2.41
 118  0.132  0.462  0.627-  43 2.41  53 2.41  24 2.41
 119  0.065  0.730  0.543-  22 2.41  21 2.41  39 2.41
 120  0.328  0.261  0.625-  66 2.41  18 2.42  48 2.43
 121  0.265  0.530  0.543-  54 2.41  51 2.41  20 2.41
 122  0.332  0.463  0.373-  52 2.41  72 2.41  47 2.41
 123  0.328  0.460  0.714-  73 2.40  53 2.40  48 2.41
 124  0.532  0.263  0.373-  88 2.41  75 2.41  86 2.41
 125  0.532  0.863  0.287-  78 2.41  59 2.41  81 2.41
 126  0.465  0.330  0.543-  33 2.41  71 2.41  55 2.41
 127  0.532  0.063  0.287-  86 2.41  84 2.41  81 2.41
 128  0.532  0.060  0.626-  85 2.40  82 2.40  83 2.41
 129  0.931  0.861  0.627-  23 2.41  31 2.41  41 2.41
 130  0.533  0.482  0.731-   1 1.79  73 2.58  46 2.77
 131  0.665  0.330  0.457-  33 2.41  70 2.41  79 2.41
 132  0.865  0.730  0.457-  34 2.41  14 2.41  22 2.41
 133  0.733  0.261  0.626-  74 2.40  16 2.41  83 2.41
 134  0.732  0.263  0.287-  15 2.41  75 2.41  84 2.41
 135  0.932  0.663  0.287-  27 2.41  36 2.41  35 2.41
 136  0.930  0.660  0.627-  26 2.41  23 2.41  19 2.41
 137  0.865  0.330  0.457-  79 2.41  40 2.41  67 2.41
 138  0.865  0.130  0.457-  17 2.41  77 2.41  67 2.41
 139  0.730  0.260  0.713-  83 2.40  74 2.41  16 2.41
 140  0.732  0.264  0.373-  15 2.41  75 2.41  84 2.41
 141  0.665  0.330  0.543-  70 2.41  79 2.41  33 2.41
 142  0.665  0.930  0.457-  77 2.41  60 2.41  80 2.41
 143  0.465  0.130  0.457-  68 2.41  33 2.41  38 2.41
 144  0.132  0.263  0.373-  44 2.41  28 2.41  47 2.41
 145  0.531  0.061  0.712-  82 2.40  85 2.40  83 2.41
 146  0.465  0.130  0.543-  38 2.41  68 2.41  33 2.41
 147  0.265  0.530  0.457-  54 2.41  51 2.41  20 2.41
 148  0.332  0.463  0.287-  72 2.41  52 2.41  47 2.41
 149  0.336  0.464  0.629-  48 2.40  53 2.40  73 2.44
 150  0.265  0.730  0.543-  21 2.41  54 2.41  61 2.41
 151  0.332  0.663  0.373-  78 2.41  65 2.41  52 2.41
 152  0.331  0.663  0.714-  57 2.41  53 2.41  87 2.41
 153  0.265  0.730  0.457-  21 2.41  61 2.41  54 2.41
 154  0.332  0.663  0.287-  52 2.41  65 2.41  78 2.41
 155  0.331  0.661  0.627-  57 2.41  87 2.41  53 2.41
 156  0.265  0.930  0.543-  39 2.41  38 2.41  61 2.41
 157  0.332  0.863  0.373-  65 2.41  81 2.41  62 2.41
 158  0.332  0.862  0.713-  57 2.40  63 2.41  82 2.41
 159  0.265  0.930  0.457-  38 2.41  39 2.41  61 2.41
 160  0.332  0.863  0.287-  62 2.41  81 2.41  65 2.41
 161  0.331  0.860  0.627-  63 2.41  57 2.41  82 2.41
 162  0.532  0.064  0.373-  84 2.41  86 2.41  81 2.41
 163  0.065  0.330  0.543-  20 2.41  67 2.41  29 2.41
 164  0.130  0.061  0.626-  18 2.40  41 2.41  32 2.41
 165  0.132  0.063  0.287-  42 2.41  37 2.41  44 2.41
 166  0.665  0.930  0.543-  60 2.41  80 2.41  77 2.41
 167  0.932  0.463  0.373-  15 2.41  35 2.41  25 2.41
 168  0.931  0.461  0.713-  26 2.41  16 2.41  24 2.41
 169  0.865  0.530  0.457-  70 2.41  40 2.41  22 2.41
 170  0.730  0.659  0.629-  23 2.40  64 2.41  46 2.42
 171  0.732  0.663  0.287-  56 2.41  36 2.41  69 2.41
 172  0.665  0.730  0.457-  14 2.41  76 2.41  60 2.41
 173  0.734  0.665  0.714-  23 2.40  46 2.40  64 2.41
 174  0.732  0.663  0.373-  56 2.41  36 2.41  69 2.41
 175  0.665  0.730  0.543-  76 2.41  14 2.41  60 2.41
 176  0.931  0.261  0.713-  49 2.41  43 2.41  16 2.41
 177  0.931  0.462  0.627-  16 2.41  26 2.41  24 2.41
 178  0.932  0.262  0.627-  16 2.41  49 2.41  43 2.41
 179  0.865  0.330  0.543-  40 2.41  79 2.41  67 2.41
 180  0.932  0.263  0.287-  28 2.41  50 2.41  15 2.41
 181  0.865  0.530  0.543-  70 2.41  40 2.41  22 2.41
 182  0.865  0.730  0.543-  14 2.41  22 2.41  34 2.41
 183  0.732  0.861  0.627-  58 2.41  64 2.41  31 2.41
 184  0.733  0.864  0.713-  64 2.40  31 2.41  58 2.41
 185  0.932  0.062  0.627-  49 2.41  32 2.41  31 2.41
 186  0.931  0.661  0.713-  26 2.41  19 2.41  23 2.41
 187  0.732  0.061  0.627-  83 2.41  58 2.41  49 2.41
 188  0.732  0.063  0.287-  50 2.41  84 2.41  59 2.41
 189  0.665  0.130  0.457-  68 2.41  79 2.41  77 2.41
 190  0.732  0.062  0.713-  58 2.40  49 2.41  83 2.41
 191  0.732  0.063  0.373-  50 2.41  59 2.41  84 2.41
 192  0.932  0.863  0.373-  42 2.41  30 2.41  36 2.41
 193  0.933  0.863  0.713-  41 2.40  23 2.41  31 2.41
 194  0.865  0.930  0.457-  17 2.41  34 2.41  60 2.41
 195  0.665  0.130  0.543-  77 2.41  68 2.41  79 2.41
 196  0.932  0.263  0.373-  50 2.41  15 2.41  28 2.41
 197  0.932  0.663  0.373-  27 2.41  35 2.41  36 2.41
 198  0.932  0.062  0.713-  32 2.40  31 2.41  49 2.41
 199  0.732  0.863  0.287-  59 2.41  56 2.41  30 2.41
 200  0.732  0.863  0.373-  30 2.41  59 2.41  56 2.41
 201  0.865  0.930  0.543-  17 2.41  60 2.41  34 2.41
 202  0.729  0.464  0.628-  26 2.41  74 2.41  46 2.43
 203  0.665  0.530  0.457-  71 2.41  70 2.41  14 2.41
 204  0.332  0.063  0.287-  37 2.41  62 2.41  86 2.41
 205  0.330  0.060  0.626-  63 2.41  18 2.41  85 2.41
 206  0.265  0.330  0.543-  51 2.41  29 2.41  55 2.41
 207  0.332  0.263  0.373-  47 2.41  37 2.41  88 2.41
 208  0.337  0.262  0.712-  48 2.40  18 2.41  66 2.43
 209  0.265  0.330  0.457-  51 2.41  29 2.41  55 2.41
 210  0.332  0.263  0.287-  47 2.41  37 2.41  88 2.41
 211  0.331  0.061  0.712-  63 2.40  18 2.41  85 2.41
 212  0.065  0.730  0.457-  39 2.41  22 2.41  21 2.41
 213  0.131  0.662  0.713-  19 2.41  24 2.41  57 2.41
 214  0.132  0.663  0.373-  27 2.41  65 2.41  25 2.41
 215  0.065  0.130  0.543-  29 2.41  45 2.41  17 2.41
 216  0.132  0.063  0.373-  42 2.41  37 2.41  44 2.41
 217  0.133  0.062  0.713-  32 2.41  18 2.41  41 2.41
 218  0.065  0.130  0.457-  45 2.41  29 2.41  17 2.41
 219  0.265  0.130  0.457-  38 2.41  45 2.41  55 2.41
 220  0.732  0.463  0.287-  75 2.41  69 2.41  35 2.41
 221  0.332  0.063  0.373-  37 2.41  86 2.41  62 2.41
 222  0.265  0.130  0.543-  45 2.41  55 2.41  38 2.41
 223  0.731  0.459  0.714-  46 2.40  26 2.41  74 2.44
 224  0.732  0.463  0.373-  75 2.41  35 2.41  69 2.41
 225  0.865  0.130  0.543-  17 2.41  77 2.41  67 2.41
 226  0.932  0.063  0.373-  30 2.41  50 2.41  44 2.41
 227  0.665  0.530  0.543-  71 2.41  14 2.41  70 2.41
 228  0.532  0.861  0.627-  87 2.40  82 2.41  58 2.41
 229  0.532  0.463  0.373-  88 2.41  69 2.41  72 2.41
 230  0.465  0.930  0.457-  68 2.41  61 2.41  80 2.41
 231  0.131  0.661  0.627-  19 2.41  24 2.41  57 2.41
 232  0.065  0.930  0.543-  45 2.41  34 2.41  39 2.41
 233  0.132  0.863  0.373-  62 2.41  27 2.41  42 2.41
 234  0.132  0.862  0.713-  19 2.41  63 2.41  41 2.41
 235  0.065  0.930  0.457-  45 2.41  39 2.41  34 2.41
 236  0.132  0.863  0.287-  62 2.41  27 2.41  42 2.41
 237  0.130  0.860  0.627-  63 2.41  19 2.41  41 2.41
 238  0.132  0.663  0.287-  25 2.41  65 2.41  27 2.41
 239  0.932  0.463  0.287-  15 2.41  25 2.41  35 2.41
 
  LATTYP: Found a hexagonal cell.
 ALAT       =    15.8227971106
 C/A-ratio  =     2.3015723924
  
  Lattice vectors:
  
 A1 = (   7.9113990000, -13.7029440000,   0.0000000000)
 A2 = (   7.9113990000,  13.7029440000,   0.0000000000)
 A3 = (   0.0000000000,   0.0000000000,  36.4173130000)


Analysis of symmetry for initial positions (statically):
=====================================================================
 Subroutine PRICEL returns:
 Original cell was already a primitive cell.
 

 Routine SETGRP: Setting up the symmetry group for a 
 hexagonal supercell.


 Subroutine GETGRP returns: Found  1 space group operations
 (whereof  1 operations were pure point group operations)
 out of a pool of 24 trial point group operations.


The static configuration has the point symmetry C_1 .


Analysis of symmetry for dynamics (positions and initial velocities):
=====================================================================
 Subroutine PRICEL returns:
 Original cell was already a primitive cell.
 

 Routine SETGRP: Setting up the symmetry group for a 
 hexagonal supercell.


 Subroutine GETGRP returns: Found  1 space group operations
 (whereof  1 operations were pure point group operations)
 out of a pool of 24 trial point group operations.


The dynamic configuration has the point symmetry C_1 .


Analysis of structural, dynamic, and magnetic symmetry:
=====================================================================
 Subroutine PRICEL returns:
 Original cell was already a primitive cell.
 

 Routine SETGRP: Setting up the symmetry group for a 
 hexagonal supercell.


 Subroutine GETGRP returns: Found  1 space group operations
 (whereof  1 operations were pure point group operations)
 out of a pool of 24 trial point group operations.


The overall configuration has the point symmetry C_1 .


 Subroutine INISYM returns: Found  1 space group operations
 (whereof  1 operations are pure point group operations),
 and found     1 'primitive' translations


----------------------------------------------------------------------------------------

                                     Primitive cell                                     

  volume of cell :    7895.9623

  direct lattice vectors                    reciprocal lattice vectors
     7.911399000-13.702944000  0.000000000     0.063199947 -0.036488509  0.000000000
     7.911399000 13.702944000  0.000000000     0.063199947  0.036488509  0.000000000
     0.000000000  0.000000000 36.417313000     0.000000000  0.000000000  0.027459467

  length of vectors
    15.822797111 15.822797111 36.417313000     0.072977015  0.072977015  0.027459467

  position of ions in fractional coordinates (direct lattice)
     0.555589109  0.543289725  0.774163129
     0.635862159  0.550244435  0.793563113
     0.499325498  0.581240902  0.830377971
     0.647999857  0.572668712  0.830714308
     0.579355392  0.587792442  0.849903908
     0.487800835  0.559966710  0.793071220
     0.549312159  0.632554669  0.898873133
     0.653706434  0.626002577  0.899056667
     0.688108256  0.535478541  0.779454153
     0.554010355  0.412322582  0.693092581
     0.444572574  0.591344848  0.844945461
     0.424055898  0.553492122  0.778900185
     0.710228659  0.576503249  0.845319152
     0.731427153  0.663276487  0.500134379
     0.865120985  0.329935511  0.330045989
     0.864795025  0.327895996  0.670016900
     0.931562735  0.063395827  0.500123533
     0.264438502  0.127731221  0.668979383
     0.064176460  0.727669913  0.670048832
     0.131483006  0.463291356  0.500019732
     0.131350842  0.663196996  0.500015179
     0.931343922  0.663292982  0.500078360
     0.865214480  0.728615159  0.670435755
     0.064335382  0.527996161  0.670294244
     0.065134294  0.529881724  0.330060363
     0.864064462  0.527632333  0.670535747
     0.065178572  0.729845848  0.330027678
     0.065160678  0.329916212  0.330040340
     0.131552463  0.263383578  0.500070499
     0.865030887  0.929895510  0.330025337
     0.865377890  0.928709171  0.669982987
     0.065309159  0.128244335  0.669889745
     0.531552534  0.263189922  0.500032243
     0.931408343  0.863400828  0.500143715
     0.865146709  0.529931122  0.330071602
     0.865074514  0.729926644  0.330028150
     0.265002522  0.129956118  0.330004237
     0.331470138  0.063140653  0.499943379
     0.131368316  0.863262030  0.500012873
     0.931424594  0.463213316  0.500000361
     0.064787649  0.928064090  0.669724199
     0.065088225  0.929777648  0.329998148
     0.065141592  0.328184759  0.670403621
     0.065028444  0.129792775  0.330073767
     0.131576494  0.063398019  0.500037524
     0.662567992  0.528054181  0.673233502
     0.265050123  0.329997747  0.330041779
     0.265894010  0.328308621  0.670682047
     0.865232875  0.128290412  0.669901607
     0.865086998  0.129904849  0.330030306
     0.331583900  0.463344106  0.500007756
     0.265188144  0.530040538  0.329977213
     0.264704802  0.528700571  0.670902249
     0.331470127  0.663165984  0.500039154
     0.331571398  0.263214052  0.500071403
     0.665046520  0.730019426  0.329979719
     0.264562076  0.728034325  0.670063111
     0.665411743  0.928528283  0.669864117
     0.665069840  0.930059320  0.330055185
     0.731484974  0.863274897  0.500161353
     0.331304668  0.863076529  0.499987015
     0.265147739  0.930012572  0.330015795
     0.264278861  0.927342661  0.669387147
     0.665815905  0.729795770  0.671031648
     0.265116701  0.729974774  0.330014428
     0.466059866  0.321460184  0.666180684
     0.931449426  0.263236289  0.500010850
     0.531461386  0.063062271  0.499972437
     0.665025059  0.529998863  0.330035696
     0.731425231  0.463270579  0.500006779
     0.531455571  0.463218625  0.500036743
     0.465095004  0.529981016  0.330030826
     0.466865408  0.530361762  0.674560041
     0.663438872  0.325489205  0.669137062
     0.665057332  0.329982955  0.330006372
     0.531509264  0.663200186  0.500089521
     0.731484312  0.063192771  0.500053579
     0.465124080  0.730053608  0.330011722
     0.731479874  0.263229126  0.499978752
     0.531418529  0.863014711  0.500052192
     0.465121822  0.930110491  0.330122683
     0.464890353  0.927665513  0.669539857
     0.664968579  0.127531515  0.669452425
     0.665171952  0.130130019  0.330058378
     0.464713043  0.125980137  0.668751308
     0.465088212  0.130107548  0.330025521
     0.464847340  0.729163547  0.670367023
     0.465041489  0.330012664  0.330013256
     0.587725589  0.603840516  0.887363920
     0.931689908  0.063207536  0.286998841
     0.464847082  0.529903886  0.543136663
     0.931709224  0.863253109  0.286975873
     0.464939023  0.530015882  0.456935807
     0.531684992  0.463302686  0.286972030
     0.531692850  0.464762512  0.629305035
     0.464740971  0.729661593  0.543197388
     0.533142056  0.257176203  0.624420357
     0.531778655  0.663362044  0.373105928
     0.464852616  0.729707289  0.456938436
     0.531599383  0.663277521  0.286944553
     0.530940489  0.658938913  0.628795493
     0.464649325  0.929661230  0.543058028
     0.531731675  0.863261617  0.373185950
     0.532192256  0.863114472  0.712987859
     0.533775306  0.669180521  0.714261792
     0.531710744  0.263397672  0.286933397
     0.464875142  0.329857324  0.456961445
     0.529855342  0.258670393  0.711731019
     0.131758598  0.260746697  0.713306551
     0.064823016  0.329966557  0.456931333
     0.131713207  0.263136902  0.287010539
     0.132979894  0.262765999  0.627294085
     0.064695331  0.529895584  0.543099111
     0.132014357  0.463395353  0.373104310
     0.130501265  0.461360365  0.713599204
     0.064742991  0.529959153  0.456921352
     0.131832595  0.463276704  0.286963680
     0.132127323  0.461725059  0.627491541
     0.064734998  0.729898504  0.543112666
     0.328341658  0.260781568  0.625396198
     0.264855704  0.529920153  0.543141998
     0.331752687  0.463487799  0.373121490
     0.327795287  0.460059125  0.714496076
     0.531762800  0.263488361  0.373116043
     0.531709911  0.863484712  0.287024714
     0.464999616  0.329880496  0.543194520
     0.531824222  0.063441004  0.287034778
     0.531919283  0.059578534  0.626034194
     0.930839433  0.860825638  0.626845215
     0.532790774  0.482296246  0.730864891
     0.664794376  0.329964511  0.456899406
     0.864741207  0.730282548  0.457036783
     0.732629756  0.261267095  0.626412682
     0.731878209  0.263444520  0.286961377
     0.931859383  0.663277227  0.287003409
     0.930063801  0.660414275  0.627224153
     0.864794827  0.329908125  0.456883455
     0.864808819  0.129773954  0.456928018
     0.730466290  0.260371705  0.712602655
     0.731829619  0.263513140  0.373153282
     0.664988398  0.330048813  0.543090726
     0.664888690  0.929827974  0.457013851
     0.464973278  0.129921645  0.456874491
     0.131713750  0.263156250  0.373183919
     0.531309263  0.060887369  0.712390648
     0.464721658  0.129657240  0.543016046
     0.264871058  0.529974751  0.456901222
     0.331888522  0.463360483  0.286940106
     0.335835464  0.464043740  0.629190664
     0.264658652  0.729734749  0.543102380
     0.331857261  0.663345297  0.373090296
     0.331404509  0.662777509  0.713572576
     0.264635192  0.729705917  0.456914478
     0.331787836  0.663384404  0.286930544
     0.331456349  0.660903198  0.627260756
     0.264700610  0.929898309  0.543064344
     0.331617969  0.863205150  0.373168503
     0.331590779  0.862032344  0.712678866
     0.264647912  0.929837936  0.456883748
     0.331904830  0.863462951  0.287004720
     0.331096586  0.860370308  0.626556139
     0.531898608  0.063693766  0.373198040
     0.064735521  0.330049815  0.543130796
     0.130373667  0.060799170  0.626405064
     0.131641020  0.063114812  0.286996386
     0.664680670  0.929882104  0.543191076
     0.931747154  0.463124349  0.373195304
     0.930838609  0.460688272  0.713318956
     0.864803935  0.529999017  0.456979402
     0.729638130  0.659088628  0.628574069
     0.731734897  0.663335440  0.286945645
     0.664896374  0.730026185  0.457049210
     0.734440237  0.665404544  0.714136472
     0.731690061  0.663407961  0.373115091
     0.664691338  0.729851355  0.543261550
     0.931180711  0.261025188  0.713190216
     0.930742874  0.461604895  0.627152957
     0.932397880  0.262052752  0.627025307
     0.864768701  0.329919102  0.543074390
     0.931829317  0.263261101  0.286987103
     0.864665248  0.529735921  0.543101384
     0.864762788  0.729976983  0.543235146
     0.731598755  0.860915100  0.627002003
     0.733198455  0.864095827  0.713454546
     0.932048273  0.061922366  0.626780100
     0.931434358  0.661201151  0.713431451
     0.732348477  0.061379900  0.626557501
     0.731826646  0.063451248  0.286979288
     0.664854029  0.129825882  0.456902596
     0.731719575  0.061781294  0.712784220
     0.731855125  0.063406092  0.373139503
     0.931836189  0.863343025  0.373134803
     0.932601279  0.862751239  0.713117015
     0.864803258  0.930141587  0.457056156
     0.664752000  0.129891056  0.543075020
     0.931755368  0.263164816  0.373088644
     0.931884162  0.663361206  0.373132232
     0.932297403  0.062102249  0.712964101
     0.731682766  0.863463266  0.286956870
     0.731708926  0.863289288  0.373113248
     0.864833803  0.930192186  0.543255686
     0.729034653  0.463694007  0.628157783
     0.664803363  0.530067072  0.456975843
     0.331650540  0.063425211  0.286964679
     0.330290941  0.059874206  0.625988247
     0.265034924  0.330169442  0.543103949
     0.331673356  0.263279065  0.373099427
     0.336583859  0.262265909  0.711675984
     0.264896886  0.329935721  0.456975518
     0.331655872  0.263323567  0.286983787
     0.331241121  0.061055631  0.711933680
     0.064579214  0.729922596  0.456958968
     0.131301624  0.661774636  0.713155323
     0.131857981  0.663255434  0.373153326
     0.065033543  0.130125177  0.543196060
     0.131760500  0.062998261  0.373129020
     0.132661185  0.061783852  0.712664330
     0.064819944  0.130029476  0.457000941
     0.264875221  0.129913764  0.456894741
     0.731815943  0.463385225  0.287011637
     0.331732758  0.063448181  0.373107555
     0.264902998  0.129747894  0.543112813
     0.730858225  0.458521985  0.713700693
     0.731659749  0.463219477  0.373097959
     0.864802633  0.129995026  0.543163325
     0.931548625  0.063091764  0.373166407
     0.664636085  0.529737188  0.543139827
     0.531845225  0.860798140  0.626700575
     0.531669577  0.463206015  0.373179074
     0.464737551  0.929654755  0.456941395
     0.130940270  0.660937799  0.627003128
     0.064907674  0.930161619  0.543110796
     0.131871999  0.863192290  0.373099271
     0.131724451  0.861632636  0.712746360
     0.064665000  0.930013216  0.456970458
     0.131878503  0.863099153  0.286933942
     0.130383230  0.860244195  0.626585925
     0.131764660  0.663089743  0.286954175
     0.931827117  0.463239025  0.287018795

  ion indices of the primitive-cell ions
   primitive index   ion index
                 1           1
                 2           2
                 3           3
                 4           4
                 5           5
                 6           6
                 7           7
                 8           8
                 9           9
                10          10
                11          11
                12          12
                13          13
                14          14
                15          15
                16          16
                17          17
                18          18
                19          19
                20          20
                21          21
                22          22
                23          23
                24          24
                25          25
                26          26
                27          27
                28          28
                29          29
                30          30
                31          31
                32          32
                33          33
                34          34
                35          35
                36          36
                37          37
                38          38
                39          39
                40          40
                41          41
                42          42
                43          43
                44          44
                45          45
                46          46
                47          47
                48          48
                49          49
                50          50
                51          51
                52          52
                53          53
                54          54
                55          55
                56          56
                57          57
                58          58
                59          59
                60          60
                61          61
                62          62
                63          63
                64          64
                65          65
                66          66
                67          67
                68          68
                69          69
                70          70
                71          71
                72          72
                73          73
                74          74
                75          75
                76          76
                77          77
                78          78
                79          79
                80          80
                81          81
                82          82
                83          83
                84          84
                85          85
                86          86
                87          87
                88          88
                89          89
                90          90
                91          91
                92          92
                93          93
                94          94
                95          95
                96          96
                97          97
                98          98
                99          99
               100         100
               101         101
               102         102
               103         103
               104         104
               105         105
               106         106
               107         107
               108         108
               109         109
               110         110
               111         111
               112         112
               113         113
               114         114
               115         115
               116         116
               117         117
               118         118
               119         119
               120         120
               121         121
               122         122
               123         123
               124         124
               125         125
               126         126
               127         127
               128         128
               129         129
               130         130
               131         131
               132         132
               133         133
               134         134
               135         135
               136         136
               137         137
               138         138
               139         139
               140         140
               141         141
               142         142
               143         143
               144         144
               145         145
               146         146
               147         147
               148         148
               149         149
               150         150
               151         151
               152         152
               153         153
               154         154
               155         155
               156         156
               157         157
               158         158
               159         159
               160         160
               161         161
               162         162
               163         163
               164         164
               165         165
               166         166
               167         167
               168         168
               169         169
               170         170
               171         171
               172         172
               173         173
               174         174
               175         175
               176         176
               177         177
               178         178
               179         179
               180         180
               181         181
               182         182
               183         183
               184         184
               185         185
               186         186
               187         187
               188         188
               189         189
               190         190
               191         191
               192         192
               193         193
               194         194
               195         195
               196         196
               197         197
               198         198
               199         199
               200         200
               201         201
               202         202
               203         203
               204         204
               205         205
               206         206
               207         207
               208         208
               209         209
               210         210
               211         211
               212         212
               213         213
               214         214
               215         215
               216         216
               217         217
               218         218
               219         219
               220         220
               221         221
               222         222
               223         223
               224         224
               225         225
               226         226
               227         227
               228         228
               229         229
               230         230
               231         231
               232         232
               233         233
               234         234
               235         235
               236         236
               237         237
               238         238
               239         239

----------------------------------------------------------------------------------------

 
 
 KPOINTS: K-Points                                

Automatic generation of k-mesh.
 Grid dimensions read from file:
 generate k-points for:    3    3    1

 Generating k-lattice:

  Cartesian coordinates                     Fractional coordinates (reciprocal lattice)
     0.021066649 -0.012162836  0.000000000     0.333333333 -0.000000000  0.000000000
     0.021066649  0.012162836  0.000000000    -0.000000000  0.333333333  0.000000000
     0.000000000  0.000000000  0.027459467     0.000000000  0.000000000  1.000000000

  Length of vectors
     0.024325672  0.024325672  0.027459467

  Shift w.r.t. Gamma in fractional coordinates (k-lattice)
     0.000000000  0.000000000  0.000000000

 
 Subroutine IBZKPT returns following result:
 ===========================================
 
 Found      5 irreducible k-points:
 
 Following reciprocal coordinates:
            Coordinates               Weight
  0.000000  0.000000  0.000000      1.000000
  0.333333  0.000000  0.000000      2.000000
  0.000000  0.333333  0.000000      2.000000
 -0.333333  0.333333  0.000000      2.000000
  0.333333  0.333333  0.000000      2.000000
 
 Following cartesian coordinates:
            Coordinates               Weight
  0.000000  0.000000  0.000000      1.000000
  0.021067 -0.012163  0.000000      2.000000
  0.021067  0.012163  0.000000      2.000000
 -0.000000  0.024326  0.000000      2.000000
  0.042133  0.000000  0.000000      2.000000
 


--------------------------------------------------------------------------------------------------------




 Dimension of arrays:
   k-points           NKPTS =      5   k-points in BZ     NKDIM =      5   number of bands    NBANDS=   1312
   number of dos      NEDOS =    301   number of ions     NIONS =    239
   non local maximal  LDIM  =      6   non local SUM 2l+1 LMDIM =     18
   total plane-waves  NPLWV = ******
   max r-space proj   IRMAX =   3534   max aug-charges    IRDMAX=  11632
   dimension x,y,z NGX =    96 NGY =   96 NGZ =  224
   dimension x,y,z NGXF=   192 NGYF=  192 NGZF=  448
   support grid    NGXF=   192 NGYF=  192 NGZF=  448
   ions per type =               6   7  75   1 150
   NGX,Y,Z   is equivalent  to a cutoff of  10.09, 10.09, 10.23 a.u.
   NGXF,Y,Z  is equivalent  to a cutoff of  20.17, 20.17, 20.45 a.u.

 SYSTEM =  unknown system                          
 POSCAR =  C  H  Mo N  S                           

 Startparameter for this run:
   NWRITE =      2    write-flag & timer
   PREC   = normal    normal or accurate (medium, high low for compatibility)
   ISTART =      0    job   : 0-new  1-cont  2-samecut
   ICHARG =      2    charge: 1-file 2-atom 10-const
   ISPIN  =      2    spin polarized calculation?
   LNONCOLLINEAR =      F non collinear calculations
   LSORBIT =      F    spin-orbit coupling
   INIWAV =      1    electr: 0-lowe 1-rand  2-diag
   LASPH  =      T    aspherical Exc in radial PAW
 Electronic Relaxation 1
   ENCUT  =  600.0 eV  44.10 Ry    6.64 a.u.  31.60 31.60 72.73*2*pi/ulx,y,z
   ENINI  =  600.0     initial cutoff
   ENAUG  =  644.9 eV  augmentation charge cutoff
   NELM   =   2000;   NELMIN=  2; NELMDL=  0     # of ELM steps 
   EDIFF  = 0.1E-05   stopping-criterion for ELM
   LREAL  =      T    real-space projection
   NLSPLINE    = F    spline interpolate recip. space projectors
   LCOMPAT=      F    compatible to vasp.4.4
   GGA_COMPAT  = T    GGA compatible to vasp.4.4-vasp.4.6
   LMAXPAW     = -100 max onsite density
   LMAXMIX     =    2 max onsite mixed and CHGCAR
   VOSKOWN=      0    Vosko Wilk Nusair interpolation
   ROPT   =   -0.00050  -0.00050  -0.00050  -0.00050
   ROPT   =   -0.00050
 Ionic relaxation
   EDIFFG = -.3E-01   stopping-criterion for IOM
   NSW    =   5000    number of steps for IOM
   NBLOCK =      1;   KBLOCK =   5000    inner block; outer block 
   IBRION =      2    ionic relax: 0-MD 1-quasi-New 2-CG
   NFREE  =      1    steps in history (QN), initial steepest desc. (CG)
   ISIF   =      2    stress and relaxation
   IWAVPR =     11    prediction:  0-non 1-charg 2-wave 3-comb
   ISYM   =      2    0-nonsym 1-usesym 2-fastsym
   LCORR  =      T    Harris-Foulkes like correction to forces

   POTIM  = 0.5000    time-step for ionic-motion
   TEIN   =    0.0    initial temperature
   TEBEG  =    0.0;   TEEND  =   0.0 temperature during run
   SMASS  =  -3.00    Nose mass-parameter (am)
   estimated Nose-frequenzy (Omega)   =  0.10E-29 period in steps = 0.13E+47 mass=  -0.572E-26a.u.
   SCALEE = 1.0000    scale energy and forces
   NPACO  =    256;   APACO  = 10.0  distance and # of slots for P.C.
   PSTRESS=    0.0 pullay stress

  Mass of Ions in am
   POMASS =  12.01  1.00 95.94 14.00 32.07
  Ionic Valenz
   ZVAL   =   4.00  1.00 14.00  5.00  6.00
  Atomic Wigner-Seitz radii
   RWIGS  =  -1.00 -1.00 -1.00 -1.00 -1.00
  virtual crystal weights 
   VCA    =   1.00  1.00  1.00  1.00  1.00
   NELECT =    1986.0000    total number of electrons
   NUPDOWN=      -1.0000    fix difference up-down

 DOS related values:
   EMIN   =  10.00;   EMAX   =-10.00  energy-range for DOS
   EFERMI =   0.00
   ISMEAR =     0;   SIGMA  =   0.05  broadening in eV -4-tet -1-fermi 0-gaus

 Electronic relaxation 2 (details)
   IALGO  =     38    algorithm
   LDIAG  =      T    sub-space diagonalisation (order eigenvalues)
   LSUBROT=      F    optimize rotation matrix (better conditioning)
[...]
  267          rspher_all                            0.313726                          9   4
  268          phaser                                0.186843                         18   4
  269          rpro_isp                             20.589497                         18   4
  270            fftwav_mpi                           15.109422                     2952   5
  271              fft3d_mpi                            13.449881                   2952   6
  272                fftbas_mpi                           13.435362                 2952   7
  273                  fftbas_plan_mpi                      13.426131               2952   8
  274                    dfftw_execute                         6.529459             8856   9
  275                    map_forward                           5.294069             5904   9
  276                      map_gather                            1.316079           2952  10
  277                      m_alltoallv_z                         1.371294           2952  10
  278                      map_scatter                           1.503536           2952  10
  279            rpromu                                5.458507                      756   5
  280              crrexp_mul_wave                       1.879091                 699624   6
  281              rpromu_gemm                           1.869145                 179172   6
  282              m_sumb_d                              0.370510                   2952   6
  283          m_sumb_d                              0.118141                         10   4
  284        m_sumb_d                              0.000832                            7   3
  285        fft3d_mpi                             0.515483                           82   3
  286          fftbrc_mpi                            0.494707                         82   4
  287            fftbas_plan_mpi                       0.494374                       82   5
  288              dfftw_execute                         0.083889                    246   6
  289              map_forward                           0.188389                     80   6
  290                map_gather                            0.007491                   40   7
  291                m_alltoallv_z                         0.162645                   40   7
  292                map_scatter                           0.017563                   40   7
  293              map_backward                          0.167793                     84   6
  294                map_gather                            0.013321                   42   7
  295                m_alltoallv_z                         0.141252                   42   7
  296                map_scatter                           0.012288                   42   7
  297        forhar                                0.628906                            2   3
  298          m_sumb_d                              0.012844                          2   4
  299        strehar                               0.008985                            1   3
  300          m_sumb_d                              0.001208                          1   4
  301        chggra                                0.024025                            1   3
  302          fft3d_mpi                             0.018316                          3   4
  303            fftbrc_mpi                            0.017643                        3   5
  304              fftbas_plan_mpi                       0.017631                      3   6
  305                dfftw_execute                         0.003323                    9   7
  306                map_backward                          0.003461                    2   7
  307                  map_gather                            0.000320                  1   8
  308                  m_alltoallv_z                         0.002840                  1   8
  309                  map_scatter                           0.000278                  1   8
  310                map_forward                           0.008841                    4   7
  311                  map_gather                            0.000399                  2   8
  312                  m_alltoallv_z                         0.007392                  2   8
  313                  map_scatter                           0.001011                  2   8
  314          m_sumb_d                              0.000274                          2   4
  315          pothar                                0.001146                          1   4
  316            m_sumb_d                              0.000541                        1   5
  317        brmix                                 0.208849                            1   3
  318          m_sumb_d                              0.001058                          6   4
  319          brpre                                 0.000178                          2   4
  320          setg0                                 0.002530                          1   4
  321          broyd                                 0.028029                          1   4
  322            m_sumb_d                              0.004262                       50   5
  323            brget                                 0.004725                      267   5
  324            brsav                                 0.001042                       48   5
  325          m_bcast_z                             0.173243                          1   4
  326        m_bcast_d                             0.001135                            2   3
  327      potlok                                3.121329                              1   2
  328        fft3d_mpi                             0.511285                           86   3
  329          fftbrc_mpi                            0.489420                         86   4
  330            fftbas_plan_mpi                       0.489162                       86   5
  331              dfftw_execute                         0.088084                    258   6
  332              map_forward                           0.179575                     88   6
  333                map_gather                            0.008837                   46   7
  334                m_alltoallv_z                         0.150427                   46   7
  335                map_scatter                           0.019411                   46   7
  336              map_backward                          0.165179                     84   6
  337                map_gather                            0.013980                   42   7
  338                m_alltoallv_z                         0.137755                   42   7
  339                map_scatter                           0.012674                   42   7
  340        m_sumb_d                              0.002507                            8   3
  341        fewald                                0.001625                            2   3
  342          rsp                                   0.001515                          2   4
  343          rcp                                   0.000093                          2   4
  344        pothar                                0.001212                            1   3
  345          m_sumb_d                              0.000598                          1   4
  346        m_bcast_d                             0.006630                            2   3
  347      potlok_metagga                        0.000001                              1   2
  348      set_dd_magatom                        0.000000                              1   2
  349      set_dd_paw                            2.899958                              1   2
  350        set_rsgf_all                          0.000002                            1   3
  351        m_sumb_d                              2.899634                            8   3
  352      densta                                0.005141                              1   2
  353        m_sumb_d                              0.003796                           10   3
 
 Flat profile
 ============
 
             routine name                   CPU           calls
 ---------------------------------------------------------------
 eddav                                3561.200137         108
 ggemm                                1238.239491      151324
 orth1                                1172.081621      347864
 dfftw_execute                         772.268343     1057083
 m_sumb_d                              710.660266      829287
 m_alltoall_d                          708.091185      848364
 total_time                            511.289051           1
 potlok                                272.371348         105
 lapack                                231.792907      115900
 lincom                                222.385048         436
 m_alltoallv_z                         214.655596      352779
 fftbas_plan_mpi                       198.147745      352361
 racc0                                 172.332476      115900
 map_scatter                           166.554796      352779
 map_gather                            165.011663      352779
 fftwav_mpi                            130.253888      226929
 rpro1                                 123.820517       80476
 crrexp_mul_work_add                   108.475181    27468300
 m_bcast_z                             103.387559      130055
 map_forward                            84.826603      463184
 vhamil                                 74.271996      115900
 crrexp_mul_wave                        57.068487    20083380
 redis_pw                               27.192319      313148
 w1_copy                                23.626168      347700
 m_bcast_d                              22.647894      232016
 eccp                                   21.327858       35424
 fftext_mpi                             19.840398      115900
 pw_charge                              15.009138       26289
 kinhamil                                9.617786      115900
 apply_precond                           7.077949       80476
 redis_proj                              6.647700      393628
 overl                                   6.607527      196380
 setup_precond                           6.139503       35424
 augmentation_charge                     5.087251         104
 setdij_                                 4.998383         132
 phaser                                  4.759425         458
 overl1                                  4.105426      115900
 fft3d_mpi                               3.950617      352361
 rpromu_gemm                             2.722796      258804
 force_and_stress                        2.621727           1
 map_backward                            2.585631      241538
 rpromu                                  1.942110        1092
 hamiltmu                                1.903152      115900
 newband                                 1.549632      116332
 broyd                                   1.366743         104
 choleski                                1.148971           4
 fftbas_mpi                              1.089860      342829
 raccmu_                                 1.087989      115900
 elmin                                   0.732008           1
 soft_charge                             0.624918         104
 forhar                                  0.616062           2
 brmix                                   0.598999         104
 rspher_all                              0.478013          14
 w1_projall                              0.454554       80476
 depsum                                  0.437628         104
 brget                                   0.380140       22569
 densta                                  0.338161         109
 forloc                                  0.301464           1
 setg0                                   0.266799         106
 stufak                                  0.194155           1
 truncate_high_frequency_w1              0.171858      151324
 rsp                                     0.167727         211
 brsav                                   0.114371        5410
 pothar                                  0.073117         106
 inisym                                  0.058568           1
 strnlr                                  0.057086           1
 set_charge                              0.055847         104
 set_dd_paw                              0.052220         106
 fft_gq                                  0.042672         104
 orthch                                  0.039011           1
 rpro_isp                                0.035120          26
 strkin                                  0.032546           1
 fftbrc_mpi                              0.030091        9532
 fornlr                                  0.028901           1
 brpre                                   0.019833         208
 rcp                                     0.010954         211
 fewald                                  0.009103         211
 strelo                                  0.007925           1
 strehar                                 0.007777           1
 chggra                                  0.004289           1
 brgrid                                  0.000776           1
 fordep                                  0.000395           1
 crpa_reader                             0.000239           1
 set_rsgf_all                            0.000234         106
 vectorpot                               0.000160         105
 potlok_metagga                          0.000150         105
 set_dd_magatom                          0.000147         106
 posmap                                  0.000114           2
 proall                                  0.000079           1
 rotate_active_occupied_orbital          0.000014           1
 redis_pw_over_bands                     0.000001           1
 ---------------------------------------------------------------
  summed up times    11212.2840878963     
 
 Accumulative profile
 ====================
 
             routine name                   CPU           calls
 ---------------------------------------------------------------
 total_time                          11212.284088           1
 elmin                               10576.059458           1
 eddav                                9766.764663         108
 fft3d_mpi                            1609.120944      352361
 fftbas_plan_mpi                      1604.050377      352361
 fftbas_mpi                           1539.861683      342829
 ggemm                                1238.239491      151324
 fftwav_mpi                           1176.052728      226929
 orth1                                1172.081621      347864
 hamiltmu                              910.307424      115900
 dfftw_execute                         772.268343     1057083
 m_sumb_d                              710.660266      829287
 m_alltoall_d                          708.091185      848364
 kinhamil                              525.041363      115900
 redis_pw                              519.355890      313148
 fftext_mpi                            515.423577      115900
 map_forward                           434.054051      463184
 potlok                                337.701775         105
 raccmu_                               309.090914      115900
 set_dd_paw                            308.033763         106
 racc0                                 303.897498      115900
 newband                               288.019114      116332
 lapack                                231.792907      115900
 redis_proj                            222.575314      393628
 lincom                                222.385048         436
 m_alltoallv_z                         214.655596      352779
 map_backward                          199.580238      241538
 w1_projall                            194.371028       80476
 rpro1                                 193.916474       80476
 map_scatter                           166.554796      352779
 map_gather                            165.011663      352779
 set_charge                            162.087563         104
 soft_charge                           153.483466         104
 crrexp_mul_work_add                   108.475181    27468300
 m_bcast_z                             103.387559      130055
 vhamil                                 74.271996      115900
 fftbrc_mpi                             65.308644        9532
 crrexp_mul_wave                        57.068487    20083380
 force_and_stress                       38.486255           1
 rpro_isp                               29.889998          26
 w1_copy                                23.626168      347700
 eccp                                   23.454321       35424
 m_bcast_d                              22.647894      232016
 strnlr                                 21.265294           1
 pw_charge                              15.009138       26289
 rpromu                                  7.936244        1092
 augmentation_charge                     7.696867         104
 setup_precond                           7.313175       35424
 fornlr                                  7.102341           1
 apply_precond                           7.077949       80476
 setdij_                                 6.675494         132
 overl                                   6.607527      196380
 orthch                                  5.153370           1
 brmix                                   4.774706         104
 phaser                                  4.759425         458
 overl1                                  4.105426      115900
 rpromu_gemm                             2.722796      258804
 proall                                  2.437362           1
 broyd                                   2.326842         104
 choleski                                1.148971           4
 fft_gq                                  0.975818         104
 densta                                  0.944596         109
 depsum                                  0.851381         104
 forhar                                  0.628906           2
 rspher_all                              0.478013          14
 brget                                   0.380140       22569
 forloc                                  0.309343           1
 fordep                                  0.301209           1
 setg0                                   0.266799         106
 fewald                                  0.248052         211
 stufak                                  0.194155           1
 truncate_high_frequency_w1              0.171858      151324
 rsp                                     0.167727         211
 pothar                                  0.131157         106
 brsav                                   0.114371        5410
 inisym                                  0.058682           1
 strkin                                  0.033209           1
 chggra                                  0.024025           1
 brpre                                   0.019833         208
 rcp                                     0.010954         211
 strehar                                 0.008985           1
 strelo                                  0.008462           1
 brgrid                                  0.000776           1
 crpa_reader                             0.000239           1
 set_rsgf_all                            0.000234         106
 vectorpot                               0.000160         105
 potlok_metagga                          0.000150         105
 set_dd_magatom                          0.000147         106
 posmap                                  0.000114           2
 rotate_active_occupied_orbital          0.000014           1
 redis_pw_over_bands                     0.000001           1
 ---------------------------------------------------------------
 
Profiling took  30.597118 17.789698  0.009120  0.008150 seconds
Profiling took  30.760791 seconds
