 vasp.6.3.2 27Jun22 (build Jan 03 2024 23:05:41) complex                        
  
 executed on           IFC15_impi date 2024.07.31  09:10:03
 running  512 mpi-ranks, with    1 threads/rank
 distrk:  each k-point on   64 cores,    8 groups
 distr:  one band on NCORE=  16 cores,    4 groups


--------------------------------------------------------------------------------------------------------


 INCAR:
   ENCUT = 600.00
   EDIFF = 1.00e-06
   ALGO = Normal
   ISMEAR = -5
   LORBIT = 11
   ICHARG = 11
   EMIN = -8.
   EMAX = 5.
   NEDOS = 3000
   LCHARG = .TRUE.
   LWAVE = .FALSE.
   LREAL = Auto
   NELM = 2000
   NCORE = 16
   KPAR = 8
   ISPIN = 2
   GGA = MK
   PARAM1 = 0.1234
   PARAM2 = 1.0
   AGGAC = 0.0
   LUSE_VDW = .TRUE.
   LASPH = .TRUE.
   LDIPOL = .TRUE.
   DIPOL = 0.5 0.5 0.5
   IDIPOL = 3

 POTCAR:    PAW_PBE Mo_sv 02Feb2006               
 POTCAR:    PAW_PBE S 06Sep2000                   
 -----------------------------------------------------------------------------
|                                                                             |
|           W    W    AA    RRRRR   N    N  II  N    N   GGGG   !!!           |
|           W    W   A  A   R    R  NN   N  II  NN   N  G    G  !!!           |
|           W    W  A    A  R    R  N N  N  II  N N  N  G       !!!           |
|           W WW W  AAAAAA  RRRRR   N  N N  II  N  N N  G  GGG   !            |
|           WW  WW  A    A  R   R   N   NN  II  N   NN  G    G                |
|           W    W  A    A  R    R  N    N  II  N    N   GGGG   !!!           |
|                                                                             |
|     You use a magnetic or noncollinear calculation, but did not specify     |
|     the initial magnetic moment with the MAGMOM tag. Note that a            |
|     default of 1 will be used for all atoms. This ferromagnetic setup       |
|     may break the symmetry of the crystal, in particular it may rule        |
|     out finding an antiferromagnetic solution. Thence, we recommend         |
|     setting the initial magnetic moment manually or verifying carefully     |
|     that this magnetic setup is desired.                                    |
|                                                                             |
 -----------------------------------------------------------------------------

 -----------------------------------------------------------------------------
|                                                                             |
|               ----> ADVICE to this user running VASP <----                  |
|                                                                             |
|     You have switched on vdW-DFT.                                           |
|     This routine was written and supplied by Jiri Klimes. We recommend      |
|     that you carefully read and cite the following publications:            |
|       J. Klimes, D.R. Bowler, A. Michelides                                 |
|          J. Phys.: Cond Matt. 22 022201 (2010)                              |
|       J. Klimes, D.R. Bowler, A. Michelides                                 |
|          Phys. Rev. B. 83, 195131 (2011)                                    |
|     and references therein.                                                 |
|                                                                             |
 -----------------------------------------------------------------------------

 POTCAR:    PAW_PBE Mo_sv 02Feb2006               
   SHA256 =  2731df97e41766cc617548c5a8267718fdef1f509ac6bafa01e745abea2bdfaa Mo_sv/POTCAR          
   COPYR  = (c) Copyright 02Feb2006 Georg Kresse                                                    
   COPYR  = This file is part of the software VASP. Any use, copying, and all other rights are regul
   COPYR  = If you do not have a valid VASP license, you may not use, copy or distribute this file. 
   VRHFIN =Mo: 4p5s4d                                                                               
   LEXCH  = PE                                                                                      
   EATOM  =  1862.2866 eV,  136.8742 Ry                                                             
                                                                                                    
   TITEL  = PAW_PBE Mo_sv 02Feb2006                                                                 
   LULTRA =        F    use ultrasoft PP ?                                                          
   IUNSCR =        1    unscreen: 0-lin 1-nonlin 2-no                                               
   RPACOR =    2.200    partial core radius                                                         
   POMASS =   95.940; ZVAL   =   14.000    mass and valenz                                          
   RCORE  =    2.500    outmost cutoff radius                                                       
   RWIGS  =    2.750; RWIGS  =    1.455    wigner-seitz radius (au A)                               
   ENMAX  =  242.676; ENMIN  =  182.007 eV                                                          
   ICORE  =        3    local potential                                                             
   LCOR   =        T    correct aug charges                                                         
   LPAW   =        T    paw PP                                                                      
   EAUG   =  446.014                                                                                
   DEXC   =    0.000                                                                                
   RMAX   =    2.563    core radius for proj-oper                                                   
   RAUG   =    1.300    factor for augmentation sphere                                              
   RDEP   =    2.641    radius for radial grids                                                     
   RDEPT  =    2.031    core radius for aug-charge                                                  
                                                                                                    
   Atomic configuration                                                                             
   11 entries                                                                                       
     n  l   j            E        occ.                                                              
     1  0  0.50    -19819.0341   2.0000                                                             
     2  0  0.50     -2799.0127   2.0000                                                             
     2  1  1.50     -2502.0276   6.0000                                                             
     3  0  0.50      -476.4449   2.0000                                                             
     3  1  1.50      -379.1496   6.0000                                                             
     3  2  2.50      -220.9367  10.0000                                                             
     4  0  0.50       -64.3378   2.0000                                                             
     5  0  0.50        -4.0862   1.0000                                                             
     4  1  1.50       -38.4773   6.0000                                                             
     4  2  2.50        -3.7535   5.0000                                                             
     4  3  2.50        -1.3606   0.0000                                                             
   Description                                                                                      
     l       E           TYP  RCUT    TYP  RCUT                                                     
     0    -64.3377829     23  2.100                                                                 
     0     -4.0861640     23  2.400                                                                 
     1    -38.4772993     23  2.100                                                                 
     1     13.6058260     23  2.100                                                                 
     2     -3.7534941     23  2.400                                                                 
     2     -5.1140767     23  2.400                                                                 
     3     -4.0817478     23  2.500                                                                 
  local pseudopotential read in
  partial core-charges read in
  partial kinetic energy density read in
  atomic valenz-charges read in
  non local Contribution for L=           0  read in
    real space projection operators read in
  non local Contribution for L=           0  read in
    real space projection operators read in
  non local Contribution for L=           1  read in
    real space projection operators read in
  non local Contribution for L=           1  read in
    real space projection operators read in
  non local Contribution for L=           2  read in
    real space projection operators read in
  non local Contribution for L=           2  read in
    real space projection operators read in
    PAW grid and wavefunctions read in
 
   number of l-projection  operators is LMAX  =           6
   number of lm-projection operators is LMMAX =          18
 
 POTCAR:    PAW_PBE S 06Sep2000                   
   SHA256 =  0fc7481fb0695f01bdc6462160264c5c84044ae9ec85a907d398b887a2bc3132 S/POTCAR              
   COPYR  = (c) Copyright 06Sep2000 Georg Kresse                                                    
   COPYR  = This file is part of the software VASP. Any use, copying, and all other rights are regul
   COPYR  = If you do not have a valid VASP license, you may not use, copy or distribute this file. 
   VRHFIN =S : s2p4                                                                                 
   LEXCH  = PE                                                                                      
   EATOM  =   276.8230 eV,   20.3459 Ry                                                             
                                                                                                    
   TITEL  = PAW_PBE S 06Sep2000                                                                     
   LULTRA =        F    use ultrasoft PP ?                                                          
   IUNSCR =        1    unscreen: 0-lin 1-nonlin 2-no                                               
   RPACOR =    1.500    partial core radius                                                         
   POMASS =   32.066; ZVAL   =    6.000    mass and valenz                                          
   RCORE  =    1.900    outmost cutoff radius                                                       
   RWIGS  =    2.200; RWIGS  =    1.164    wigner-seitz radius (au A)                               
   ENMAX  =  258.689; ENMIN  =  194.016 eV                                                          
   ICORE  =        2    local potential                                                             
   LCOR   =        T    correct aug charges                                                         
   LPAW   =        T    paw PP                                                                      
   EAUG   =  335.092                                                                                
   DEXC   =    0.000                                                                                
   RMAX   =    1.942    core radius for proj-oper                                                   
   RAUG   =    1.300    factor for augmentation sphere                                              
   RDEP   =    1.954    radius for radial grids                                                     
   RDEPT  =    1.744    core radius for aug-charge                                                  
                                                                                                    
   Atomic configuration                                                                             
    6 entries                                                                                       
     n  l   j            E        occ.                                                              
     1  0  0.50     -2405.8406   2.0000                                                             
     2  0  0.50      -211.7007   2.0000                                                             
     2  1  1.50      -156.4958   6.0000                                                             
     3  0  0.50       -17.2562   2.0000                                                             
     3  1  0.50        -7.0085   4.0000                                                             
     3  2  1.50        -6.8029   0.0000                                                             
   Description                                                                                      
     l       E           TYP  RCUT    TYP  RCUT                                                     
     0    -17.2561641     23  1.900                                                                 
     0    -15.8743224     23  1.900                                                                 
     1     -7.0085400     23  1.900                                                                 
     1     -2.7779785     23  1.900                                                                 
     2     -6.8029130     23  1.900                                                                 
  local pseudopotential read in
  partial core-charges read in
  partial kinetic energy density read in
  atomic valenz-charges read in
  non local Contribution for L=           0  read in
    real space projection operators read in
  non local Contribution for L=           0  read in
    real space projection operators read in
  non local Contribution for L=           1  read in
    real space projection operators read in
  non local Contribution for L=           1  read in
    real space projection operators read in
    PAW grid and wavefunctions read in
 
   number of l-projection  operators is LMAX  =           4
   number of lm-projection operators is LMMAX =           8
 
 Optimization of the real space projectors (new method)

 maximal supplied QI-value         = 15.12
 optimisation between [QCUT,QGAM] = [ 12.55, 25.10] = [ 44.09,176.36] Ry 
 Optimized for a Real-space Cutoff    1.47 Angstroem

   l    n(q)    QCUT    max X(q) W(low)/X(q) W(high)/X(q)  e(spline) 
   0     11    12.548     3.559    0.18E-04    0.60E-05    0.19E-06
   0     11    12.548    20.730    0.37E-04    0.13E-04    0.98E-07
   1     11    12.548     3.279    0.80E-06    0.70E-06    0.27E-07
   1     11    12.548     4.693    0.72E-04    0.11E-03    0.38E-06
   2     10    12.548    67.616    0.34E-03    0.45E-03    0.54E-06
   2     10    12.548    62.420    0.34E-03    0.45E-03    0.54E-06
 Optimization of the real space projectors (new method)

 maximal supplied QI-value         = 19.84
 optimisation between [QCUT,QGAM] = [ 12.50, 25.00] = [ 43.76,175.03] Ry 
 Optimized for a Real-space Cutoff    1.06 Angstroem

   l    n(q)    QCUT    max X(q) W(low)/X(q) W(high)/X(q)  e(spline) 
   0      8    12.501   187.594    0.26E-03    0.17E-03    0.97E-07
   0      8    12.501   164.243    0.26E-03    0.17E-03    0.96E-07
   1      7    12.501    67.533    0.50E-03    0.61E-03    0.91E-07
   1      7    12.501    50.729    0.48E-03    0.60E-03    0.90E-07
 -----------------------------------------------------------------------------
|                                                                             |
|               ----> ADVICE to this user running VASP <----                  |
|                                                                             |
|     You enforced a specific xc type in the INCAR file but a different       |
|     type was found in the POTCAR file.                                      |
|     I HOPE YOU KNOW WHAT YOU ARE DOING!                                     |
|                                                                             |
 -----------------------------------------------------------------------------

  PAW_PBE Mo_sv 02Feb2006               :
 energy of atom  1       EATOM=-1862.2866
 kinetic energy error for atom=    0.0041 (will be added to EATOM!!)
  PAW_PBE S 06Sep2000                   :
 energy of atom  2       EATOM= -276.8230
 kinetic energy error for atom=    0.0009 (will be added to EATOM!!)
 
 
 POSCAR: Mo S
  positions in direct lattice
  velocities in cartesian coordinates
 exchange correlation table for  LEXCH =       43
   RHO(1)=    0.500       N(1)  =     2000
   RHO(2)=  100.500       N(2)  =     4000

 VTST: version 4.1, (05/19/21)

 CHAIN: initializing optimizer
 
 OPT: Using VASP Dynamics algorithm
 CHAIN: Read ICHAIN            0
 
 POSCAR: Mo S
  positions in direct lattice
  velocities in cartesian coordinates
 


--------------------------------------------------------------------------------------------------------


 ion  position               nearest neighbor table
   1  0.667  0.733  0.500-  37 2.41  66 2.41  39 2.41  65 2.41  36 2.41  40 2.41  11 3.16   3 3.16
                            13 3.16  23 3.16  19 3.16  14 3.16
   2  0.267  0.933  0.500-  72 2.41  48 2.41  49 2.41  71 2.41  47 2.41  51 2.41  25 3.16   4 3.16
                            18 3.16  10 3.16  17 3.16   8 3.16
   3  0.667  0.933  0.500-  37 2.41  45 2.41  32 2.41  36 2.41  67 2.41  33 2.41  10 3.16   1 3.16
                            11 3.16   9 3.16  23 3.16   6 3.16
   4  0.267  0.733  0.500-  46 2.41  72 2.41  70 2.41  52 2.41  71 2.41  69 2.41  18 3.16   2 3.16
                            20 3.16  10 3.16   5 3.16  11 3.16
   5  0.267  0.533  0.500-  68 2.41  58 2.41  70 2.41  60 2.41  57 2.41  69 2.41  20 3.16   7 3.16
                            22 3.16   4 3.16  13 3.16  11 3.16
   6  0.867  0.133  0.500-  30 2.41  32 2.41  42 2.41  35 2.41  33 2.41  29 2.41  23 3.16  24 3.16
                             9 3.16  16 3.16   3 3.16  22 3.16
   7  0.267  0.333  0.500-  56 2.41  68 2.41  59 2.41  55 2.41  60 2.41  50 2.41  22 3.16   5 3.16
                            24 3.16  13 3.16  15 3.16  17 3.16
   8  0.467  0.133  0.500-  74 2.41  62 2.41  49 2.41  73 2.41  51 2.41  61 2.41   9 3.16  12 3.16
                            10 3.16  15 3.16  17 3.16   2 3.16
   9  0.667  0.133  0.500-  32 2.41  28 2.41  74 2.41  33 2.41  73 2.41  26 2.41   8 3.16  10 3.16
                             3 3.16   6 3.16  12 3.16  16 3.16
  10  0.467  0.933  0.500-  45 2.41  72 2.41  74 2.41  67 2.41  71 2.41  73 2.41   3 3.16  11 3.16
                             9 3.16   4 3.16   2 3.16   8 3.16
  11  0.467  0.733  0.500-  66 2.41  45 2.41  70 2.41  65 2.41  69 2.41  67 2.41   1 3.16  10 3.16
                             3 3.16   4 3.16  13 3.16   5 3.16
  12  0.667  0.333  0.500-  43 2.41  62 2.41  28 2.41  61 2.41  44 2.41  26 2.41  15 3.16  14 3.16
                             8 3.16  21 3.16  16 3.16   9 3.16
  13  0.467  0.533  0.500-  64 2.41  66 2.41  68 2.41  63 2.41  60 2.41  65 2.41  14 3.16  15 3.16
                             1 3.16   7 3.16   5 3.16  11 3.16
  14  0.667  0.533  0.500-  43 2.41  39 2.41  64 2.41  44 2.41  63 2.41  40 2.41  13 3.16  12 3.16
                            15 3.16   1 3.16  21 3.16  19 3.16
  15  0.467  0.333  0.500-  62 2.41  59 2.41  64 2.41  61 2.41  50 2.41  63 2.41  12 3.16  13 3.16
                            14 3.16   8 3.16   7 3.16  17 3.16
  16  0.867  0.333  0.500-  42 2.41  41 2.41  28 2.41  29 2.41  26 2.41  38 2.41  21 3.16  20 3.16
                             6 3.16  12 3.16  22 3.16   9 3.16
  17  0.267  0.133  0.500-  49 2.41  54 2.41  59 2.41  51 2.41  53 2.41  50 2.41  24 3.16  25 3.16
                             8 3.16   2 3.16   7 3.16  15 3.16
  18  0.067  0.733  0.500-  46 2.41  48 2.41  27 2.41  52 2.41  47 2.41  31 2.41   4 3.16  25 3.16
                             2 3.16  20 3.16  19 3.16  21 3.16
  19  0.867  0.733  0.500-  27 2.41  39 2.41  75 2.41  31 2.41  40 2.41  34 2.41  23 3.16  25 3.16
                            21 3.16   1 3.16  18 3.16  14 3.16
  20  0.067  0.533  0.500-  58 2.41  46 2.41  41 2.41  57 2.41  52 2.41  38 2.41   5 3.16  22 3.16
                             4 3.16  16 3.16  21 3.16  18 3.16
  21  0.867  0.533  0.500-  41 2.41  27 2.41  43 2.41  38 2.41  44 2.41  31 2.41  16 3.16  12 3.16
                            14 3.16  19 3.16  20 3.16  18 3.16
  22  0.067  0.333  0.500-  56 2.41  58 2.41  42 2.41  55 2.41  57 2.41  29 2.41   7 3.16  20 3.16
                             5 3.16  16 3.16  24 3.16   6 3.16
  23  0.867  0.933  0.500-  75 2.41  37 2.41  30 2.41  34 2.41  36 2.41  35 2.41  19 3.16   1 3.16
                             6 3.16   3 3.16  25 3.16  24 3.16
  24  0.067  0.133  0.500-  54 2.41  56 2.41  30 2.41  53 2.41  55 2.41  35 2.41  17 3.16   7 3.16
                             6 3.16  22 3.16  25 3.16  23 3.16
  25  0.067  0.933  0.500-  48 2.41  75 2.41  54 2.41  47 2.41  34 2.41  53 2.41   2 3.16  18 3.16
                            17 3.16  19 3.16  23 3.16  24 3.16
  26  0.733  0.267  0.568-  16 2.41   9 2.41  12 2.41
  27  0.933  0.667  0.432-  19 2.41  21 2.41  18 2.41
  28  0.733  0.267  0.432-   9 2.41  16 2.41  12 2.41
  29  0.933  0.267  0.568-  16 2.41   6 2.41  22 2.41
  30  0.933  0.067  0.432-   6 2.41  24 2.41  23 2.41
  31  0.933  0.667  0.568-  19 2.41  21 2.41  18 2.41
  32  0.733  0.067  0.432-   9 2.41   6 2.41   3 2.41
  33  0.733  0.067  0.568-   9 2.41   6 2.41   3 2.41
  34  0.933  0.867  0.568-  23 2.41  19 2.41  25 2.41
  35  0.933  0.067  0.568-   6 2.41  24 2.41  23 2.41
  36  0.733  0.867  0.568-   3 2.41  23 2.41   1 2.41
  37  0.733  0.867  0.432-   3 2.41   1 2.41  23 2.41
  38  0.933  0.467  0.568-  21 2.41  16 2.41  20 2.41
  39  0.733  0.667  0.432-  14 2.41  19 2.41   1 2.41
  40  0.733  0.667  0.568-  19 2.41  14 2.41   1 2.41
  41  0.933  0.467  0.432-  21 2.41  16 2.41  20 2.41
  42  0.933  0.267  0.432-  16 2.41   6 2.41  22 2.41
  43  0.733  0.467  0.432-  14 2.41  12 2.41  21 2.41
  44  0.733  0.467  0.568-  14 2.41  21 2.41  12 2.41
  45  0.533  0.867  0.432-  10 2.41   3 2.41  11 2.41
  46  0.133  0.667  0.432-  18 2.41   4 2.41  20 2.41
  47  0.133  0.867  0.568-  25 2.41   2 2.41  18 2.41
  48  0.133  0.867  0.432-  25 2.41  18 2.41   2 2.41
  49  0.333  0.067  0.432-  17 2.41   8 2.41   2 2.41
  50  0.333  0.267  0.568-  15 2.41  17 2.41   7 2.41
  51  0.333  0.067  0.568-  17 2.41   8 2.41   2 2.41
  52  0.133  0.667  0.568-  18 2.41   4 2.41  20 2.41
  53  0.133  0.067  0.568-  24 2.41  17 2.41  25 2.41
  54  0.133  0.067  0.432-  24 2.41  17 2.41  25 2.41
  55  0.133  0.267  0.568-  22 2.41   7 2.41  24 2.41
  56  0.133  0.267  0.432-  22 2.41   7 2.41  24 2.41
  57  0.133  0.467  0.568-  20 2.41   5 2.41  22 2.41
  58  0.133  0.467  0.432-  20 2.41   5 2.41  22 2.41
  59  0.333  0.267  0.432-  15 2.41  17 2.41   7 2.41
  60  0.333  0.467  0.568-   5 2.41  13 2.41   7 2.41
  61  0.533  0.267  0.568-  15 2.41  12 2.41   8 2.41
  62  0.533  0.267  0.432-  15 2.41  12 2.41   8 2.41
  63  0.533  0.467  0.568-  13 2.41  14 2.41  15 2.41
  64  0.533  0.467  0.432-  13 2.41  14 2.41  15 2.41
  65  0.533  0.667  0.568-  11 2.41   1 2.41  13 2.41
  66  0.533  0.667  0.432-  11 2.41   1 2.41  13 2.41
  67  0.533  0.867  0.568-  10 2.41   3 2.41  11 2.41
  68  0.333  0.467  0.432-   5 2.41   7 2.41  13 2.41
  69  0.333  0.667  0.568-  11 2.41   5 2.41   4 2.41
  70  0.333  0.667  0.432-   5 2.41  11 2.41   4 2.41
  71  0.333  0.867  0.568-   2 2.41  10 2.41   4 2.41
  72  0.333  0.867  0.432-   2 2.41   4 2.41  10 2.41
  73  0.533  0.067  0.568-   8 2.41   9 2.41  10 2.41
  74  0.533  0.067  0.432-   8 2.41   9 2.41  10 2.41
  75  0.933  0.867  0.432-  23 2.41  19 2.41  25 2.41
 
  LATTYP: Found a hexagonal cell.
 ALAT       =    15.8227970706
 C/A-ratio  =     1.4623157837
  
  Lattice vectors:
  
 A1 = (   7.9113985353, -13.7029442220,   0.0000000000)
 A2 = (   7.9113985353,  13.7029442220,   0.0000000000)
 A3 = (   0.0000000000,   0.0000000000,  23.1379258980)


Analysis of symmetry for initial positions (statically):
=====================================================================
 Subroutine PRICEL returns following result:
 
  LATTYP: Found a hexagonal cell.
 ALAT       =     3.1645594141
 C/A-ratio  =     7.3115789183
  
  Lattice vectors:
  
 A1 = (   1.5822797071,  -2.7405888444,   0.0000000000)
 A2 = (   1.5822797071,   2.7405888444,   0.0000000000)
 A3 = (   0.0000000000,   0.0000000000,  23.1379258980)
 
  25 primitive cells build up your supercell.
 

 Routine SETGRP: Setting up the symmetry group for a 
 hexagonal supercell.


 Subroutine GETGRP returns: Found  6 space group operations
 (whereof  6 operations were pure point group operations)
 out of a pool of 24 trial point group operations.


The static configuration has the point symmetry C_3v.


Analysis of symmetry for dynamics (positions and initial velocities):
=====================================================================
 Subroutine PRICEL returns following result:
 
  LATTYP: Found a hexagonal cell.
 ALAT       =     3.1645594141
 C/A-ratio  =     7.3115789183
  
  Lattice vectors:
  
 A1 = (   1.5822797071,  -2.7405888444,   0.0000000000)
 A2 = (   1.5822797071,   2.7405888444,   0.0000000000)
 A3 = (   0.0000000000,   0.0000000000,  23.1379258980)
 
  25 primitive cells build up your supercell.
 

 Routine SETGRP: Setting up the symmetry group for a 
 hexagonal supercell.


 Subroutine GETGRP returns: Found  6 space group operations
 (whereof  6 operations were pure point group operations)
 out of a pool of 24 trial point group operations.


The dynamic configuration has the point symmetry C_3v.


Analysis of structural, dynamic, and magnetic symmetry:
=====================================================================
 Subroutine PRICEL returns following result:
 
  LATTYP: Found a hexagonal cell.
 ALAT       =     3.1645594141
 C/A-ratio  =     7.3115789183
  
  Lattice vectors:
  
 A1 = (   1.5822797071,  -2.7405888444,   0.0000000000)
 A2 = (   1.5822797071,   2.7405888444,   0.0000000000)
 A3 = (   0.0000000000,   0.0000000000,  23.1379258980)
 
  25 primitive cells build up your supercell.
 

 Routine SETGRP: Setting up the symmetry group for a 
 hexagonal supercell.


 Subroutine GETGRP returns: Found  6 space group operations
 (whereof  6 operations were pure point group operations)
 out of a pool of 24 trial point group operations.


The overall configuration has the point symmetry C_3v.


 Subroutine INISYM returns: Found  6 space group operations
 (whereof  6 operations are pure point group operations),
 and found    25 'primitive' translations


----------------------------------------------------------------------------------------

                                     Primitive cell                                     

  volume of cell :     200.6696

  direct lattice vectors                    reciprocal lattice vectors
     1.582279707 -2.740588844  0.000000000     0.315999755 -0.182442544  0.000000000
     1.582279707  2.740588844  0.000000000     0.315999755  0.182442544  0.000000000
     0.000000000  0.000000000 23.137925898     0.000000000  0.000000000  0.043219086

  length of vectors
     3.164559414  3.164559414 23.137925898     0.364885087  0.364885087  0.043219086

  position of ions in fractional coordinates (direct lattice)
     0.333333333  0.666666667  0.499983169
     0.666666667  0.333333333  0.567785420
     0.666666667  0.333333333  0.432191555

  ion indices of the primitive-cell ions
   primitive index   ion index
                 1           1
                 2          40
                 3          39

----------------------------------------------------------------------------------------

 
 
 KPOINTS: K-Points                                

Automatic generation of k-mesh.
 Grid dimensions read from file:
 generate k-points for:    9    9    1

 Generating k-lattice:

  Cartesian coordinates                     Fractional coordinates (reciprocal lattice)
     0.007022217 -0.004054279  0.000000000     0.111111111 -0.000000000  0.000000000
     0.007022217  0.004054279  0.000000000    -0.000000000  0.111111111  0.000000000
     0.000000000  0.000000000  0.043219086     0.000000000  0.000000000  1.000000000

  Length of vectors
     0.008108557  0.008108557  0.043219086

  Shift w.r.t. Gamma in fractional coordinates (k-lattice)
     0.000000000  0.000000000  0.000000000

 TETIRR: Found     43 inequivalent tetrahedra from      486
 
 Subroutine IBZKPT returns following result:
 ===========================================
 
 Found     12 irreducible k-points:
 
 Following reciprocal coordinates:
            Coordinates               Weight
  0.000000  0.000000  0.000000      1.000000
  0.111111 -0.000000  0.000000      6.000000
  0.222222  0.000000  0.000000      6.000000
  0.333333  0.000000  0.000000      6.000000
  0.444444  0.000000  0.000000      6.000000
  0.111111  0.111111  0.000000      6.000000
  0.222222  0.111111  0.000000     12.000000
  0.333333  0.111111  0.000000     12.000000
  0.444444  0.111111  0.000000      6.000000
  0.222222  0.222222  0.000000      6.000000
  0.333333  0.222222  0.000000     12.000000
  0.333333  0.333333  0.000000      2.000000
 
 Following cartesian coordinates:
            Coordinates               Weight
  0.000000  0.000000  0.000000      1.000000
  0.007022 -0.004054  0.000000      6.000000
  0.014044 -0.008109  0.000000      6.000000
  0.021067 -0.012163  0.000000      6.000000
  0.028089 -0.016217  0.000000      6.000000
  0.014044 -0.000000  0.000000      6.000000
  0.021067 -0.004054  0.000000     12.000000
  0.028089 -0.008109  0.000000     12.000000
  0.035111 -0.012163  0.000000      6.000000
  0.028089 -0.000000  0.000000      6.000000
  0.035111 -0.004054  0.000000     12.000000
  0.042133 -0.000000  0.000000      2.000000
 


--------------------------------------------------------------------------------------------------------




 Dimension of arrays:
   k-points           NKPTS =     12   k-points in BZ     NKDIM =     12   number of bands    NBANDS=    428
   number of dos      NEDOS =   3000   number of ions     NIONS =     75
   non local maximal  LDIM  =      6   non local SUM 2l+1 LMDIM =     18
   total plane-waves  NPLWV = ******
   max r-space proj   IRMAX =   3477   max aug-charges    IRDMAX=  11445
   dimension x,y,z NGX =    96 NGY =   96 NGZ =  140
   dimension x,y,z NGXF=   192 NGYF=  192 NGZF=  280
   support grid    NGXF=   192 NGYF=  192 NGZF=  280
   ions per type =              25  50
   NGX,Y,Z   is equivalent  to a cutoff of  10.09, 10.09, 10.06 a.u.
   NGXF,Y,Z  is equivalent  to a cutoff of  20.17, 20.17, 20.12 a.u.

 SYSTEM =  unknown system                          
 POSCAR =  Mo S                                    

 Startparameter for this run:
   NWRITE =      2    write-flag & timer
   PREC   = normal    normal or accurate (medium, high low for compatibility)
   ISTART =      0    job   : 0-new  1-cont  2-samecut
   ICHARG =     11    charge: 1-file 2-atom 10-const
   ISPIN  =      2    spin polarized calculation?
   LNONCOLLINEAR =      F non collinear calculations
   LSORBIT =      F    spin-orbit coupling
   INIWAV =      1    electr: 0-lowe 1-rand  2-diag
   LASPH  =      T    aspherical Exc in radial PAW
 Electronic Relaxation 1
   ENCUT  =  600.0 eV  44.10 Ry    6.64 a.u.  31.60 31.60 46.21*2*pi/ulx,y,z
   ENINI  =  600.0     initial cutoff
   ENAUG  =  446.0 eV  augmentation charge cutoff
   NELM   =   2000;   NELMIN=  2; NELMDL=  0     # of ELM steps 
   EDIFF  = 0.1E-05   stopping-criterion for ELM
   LREAL  =      T    real-space projection
   NLSPLINE    = F    spline interpolate recip. space projectors
   LCOMPAT=      F    compatible to vasp.4.4
   GGA_COMPAT  = T    GGA compatible to vasp.4.4-vasp.4.6
   LMAXPAW     = -100 max onsite density
   LMAXMIX     =    2 max onsite mixed and CHGCAR
   VOSKOWN=      0    Vosko Wilk Nusair interpolation
   ROPT   =   -0.00050  -0.00050
 Ionic relaxation
   EDIFFG = 0.1E-04   stopping-criterion for IOM
   NSW    =      0    number of steps for IOM
   NBLOCK =      1;   KBLOCK =      1    inner block; outer block 
   IBRION =     -1    ionic relax: 0-MD 1-quasi-New 2-CG
   NFREE  =      0    steps in history (QN), initial steepest desc. (CG)
   ISIF   =      2    stress and relaxation
   IWAVPR =     10    prediction:  0-non 1-charg 2-wave 3-comb
   ISYM   =      2    0-nonsym 1-usesym 2-fastsym
   LCORR  =      T    Harris-Foulkes like correction to forces

   POTIM  = 0.5000    time-step for ionic-motion
   TEIN   =    0.0    initial temperature
   TEBEG  =    0.0;   TEEND  =   0.0 temperature during run
   SMASS  =  -3.00    Nose mass-parameter (am)
   estimated Nose-frequenzy (Omega)   =  0.10E-29 period in steps = 0.13E+47 mass=  -0.572E-26a.u.
   SCALEE = 1.0000    scale energy and forces
   NPACO  =    256;   APACO  = 10.0  distance and # of slots for P.C.
   PSTRESS=    0.0 pullay stress

  Mass of Ions in am
   POMASS =  95.94 32.07
  Ionic Valenz
   ZVAL   =  14.00  6.00
  Atomic Wigner-Seitz radii
   RWIGS  =  -1.00 -1.00
  virtual crystal weights 
   VCA    =   1.00  1.00
   NELECT =     650.0000    total number of electrons
   NUPDOWN=      -1.0000    fix difference up-down

 DOS related values:
   EMIN   =  -8.00;   EMAX   =  5.00  energy-range for DOS
   EFERMI =   0.00
   ISMEAR =    -5;   SIGMA  =   0.20  broadening in eV -4-tet -1-fermi 0-gaus

 Electronic relaxation 2 (details)
   IALGO  =     38    algorithm
   LDIAG  =      T    sub-space diagonalisation (order eigenvalues)
   LSUBROT=      F    optimize rotation matrix (better conditioning)
   TURBO    =      0    0=normal 1=particle mesh
   IRESTART =      0    0=no restart 2=restart with 2 vectors
   NREBOOT  =      0    no. of reboots
   NMIN     =      0    reboot dimension
   EREF     =   0.00    reference energy to select bands
   IMIX   =      4    mixing-type and parameters
     AMIX     =   0.40;   BMIX     =  1.00
     AMIX_MAG =   1.60;   BMIX_MAG =  1.00
     AMIN     =   0.10
     WC   =   100.;   INIMIX=   1;  MIXPRE=   1;  MAXMIX= -45

 Intra band minimization:
   WEIMIN = 0.0000     energy-eigenvalue tresh-hold
   EBREAK =  0.58E-09  absolut break condition
   DEPER  =   0.30     relativ break condition  

   TIME   =   0.40     timestep for ELM

  volume/ion in A,a.u.               =      66.89       451.40
  Fermi-wavevector in a.u.,A,eV,Ry     =   0.828397  1.565444  9.336894  0.686242
  Thomas-Fermi vector in A             =   1.940766
 
 Write flags
   LWAVE        =      F    write WAVECAR
   LDOWNSAMPLE  =      F    k-point downsampling of WAVECAR
   LCHARG       =      T    write CHGCAR
   LVTOT        =      F    write LOCPOT, total local potential
   LVHAR        =      F    write LOCPOT, Hartree potential only
   LELF         =      F    write electronic localiz. function (ELF)
   LORBIT       =     11    0 simple, 1 ext, 2 COOP (PROOUT), +10 PAW based schemes


 Dipole corrections
   LMONO  =      F    monopole corrections only (constant potential shift)
   LDIPOL =      T    correct potential (dipole corrections)
   IDIPOL =      3    1-x, 2-y, 3-z, 4-all directions 
   EPSILON=  1.0000000 bulk dielectric constant

 Exchange correlation treatment:
   GGA     =    MK    GGA type
   LEXCH   =    43    internal setting for exchange type
   LIBXC   =     F    Libxc                    
   VOSKOWN =     0    Vosko Wilk Nusair interpolation
   LHFCALC =     F    Hartree Fock is set to
   LHFONE  =     F    Hartree Fock one center treatment
   AEXX    =    0.0000 exact exchange contribution

 vdW DFT:
   LUSE_VDW   =     T    switch on vdW DFT
   Zab_VDW    =-.8491    correlation parameter
   PARAM1     =0.1234
   PARAM2     =1.0000
   PARAM3     =0.0000
   -- rVV10 --
   BPARAM     = 6.3000
   CPARAM     = 0.0093

 Linear response parameters
   LEPSILON=     F    determine dielectric tensor
   LRPA    =     F    only Hartree local field effects (RPA)
   LNABLA  =     F    use nabla operator in PAW spheres
   LVEL    =     F    velocity operator in full k-point grid
   CSHIFT  =0.1000    complex shift for real part using Kramers Kronig
   OMEGAMAX=  -1.0    maximum frequency
   DEG_THRESHOLD= 0.2000000E-02 threshold for treating states as degnerate
   RTIME   =   -0.100 relaxation time in fs
  (WPLASMAI=    0.000 imaginary part of plasma frequency in eV, 0.658/RTIME)
   DFIELD  = 0.0000000 0.0000000 0.0000000 field for delta impulse in time
 
  Optional k-point grid parameters
   LKPOINTS_OPT  =     F    use optional k-point grid
   KPOINTS_OPT_MODE=     1    mode for optional k-point grid
 
 Orbital magnetization related:
   ORBITALMAG=     F  switch on orbital magnetization
   LCHIMAG   =     F  perturbation theory with respect to B field
   DQ        =  0.001000  dq finite difference perturbation B field
   LLRAUG    =     F  two centre corrections for induced B field



--------------------------------------------------------------------------------------------------------


 Static calculation
 charge density and potential remain constant during run
 spin polarized calculation
 Variant of blocked Davidson
 Davidson routine will perform the subspace rotation
 perform sub-space diagonalisation
    after iterative eigenvector-optimisation
 no mixing
 using additional bands          103
 real space projection scheme for non local part
 use partial core corrections
 calculate Harris-corrections to forces 
   (improved forces if not selfconsistent)
 use gradient corrections 
 WARNING: stress and forces are not correct
  (second derivative of E(xc) not defined)
 use of overlap-Matrix (Vanderbilt PP)
 Fermi weights with tetrahedron method with Bloechl corrections


--------------------------------------------------------------------------------------------------------


  energy-cutoff  :      600.00
  volume of cell :     5016.74
      direct lattice vectors                 reciprocal lattice vectors
     7.911398535-13.702944222  0.000000000     0.063199951 -0.036488509  0.000000000
     7.911398535 13.702944222  0.000000000     0.063199951  0.036488509  0.000000000
     0.000000000  0.000000000 23.137925898     0.000000000  0.000000000  0.043219086

  length of vectors
    15.822797071 15.822797071 23.137925898     0.072977017  0.072977017  0.043219086


 
 k-points in units of 2pi/SCALE and weight: K-Points                                
   0.00000000  0.00000000  0.00000000       0.012
   0.00702222 -0.00405428  0.00000000       0.074
   0.01404443 -0.00810856  0.00000000       0.074
   0.02106665 -0.01216284  0.00000000       0.074
   0.02808887 -0.01621711  0.00000000       0.074
   0.01404443 -0.00000000  0.00000000       0.074
   0.02106665 -0.00405428  0.00000000       0.148
   0.02808887 -0.00810856  0.00000000       0.148
   0.03511108 -0.01216284  0.00000000       0.074
   0.02808887 -0.00000000  0.00000000       0.074
   0.03511108 -0.00405428  0.00000000       0.148
   0.04213330 -0.00000000  0.00000000       0.025
 
 k-points in reciprocal lattice and weights: K-Points                                
   0.00000000  0.00000000  0.00000000       0.012
   0.11111111 -0.00000000  0.00000000       0.074
   0.22222222  0.00000000  0.00000000       0.074
   0.33333333  0.00000000  0.00000000       0.074
   0.44444444  0.00000000  0.00000000       0.074
   0.11111111  0.11111111  0.00000000       0.074
   0.22222222  0.11111111  0.00000000       0.148
   0.33333333  0.11111111  0.00000000       0.148
   0.44444444  0.11111111  0.00000000       0.074
   0.22222222  0.22222222  0.00000000       0.074
   0.33333333  0.22222222  0.00000000       0.148
   0.33333333  0.33333333  0.00000000       0.025
 
 position of ions in fractional coordinates (direct lattice) 
   0.66666667  0.73333333  0.49998317
   0.26666667  0.93333333  0.49998317
   0.66666667  0.93333333  0.49998317
   0.26666667  0.73333333  0.49998317
   0.26666667  0.53333333  0.49998317
   0.86666667  0.13333333  0.49998317
   0.26666667  0.33333333  0.49998317
   0.46666667  0.13333333  0.49998317
   0.66666667  0.13333333  0.49998317
   0.46666667  0.93333333  0.49998317
   0.46666667  0.73333333  0.49998317
   0.66666667  0.33333333  0.49998317
   0.46666667  0.53333333  0.49998317
   0.66666667  0.53333333  0.49998317
   0.46666667  0.33333333  0.49998317
   0.86666667  0.33333333  0.49998317
   0.26666667  0.13333333  0.49998317
   0.06666667  0.73333333  0.49998317
   0.86666667  0.73333333  0.49998317
   0.06666667  0.53333333  0.49998317
   0.86666667  0.53333333  0.49998317
   0.06666667  0.33333333  0.49998317
   0.86666667  0.93333333  0.49998317
   0.06666667  0.13333333  0.49998317
   0.06666667  0.93333333  0.49998317
   0.73333333  0.26666667  0.56778542
   0.93333333  0.66666667  0.43219155
   0.73333333  0.26666667  0.43219155
   0.93333333  0.26666667  0.56778542
   0.93333333  0.06666667  0.43219155
   0.93333333  0.66666667  0.56778542
   0.73333333  0.06666667  0.43219155
   0.73333333  0.06666667  0.56778542
   0.93333333  0.86666667  0.56778542
   0.93333333  0.06666667  0.56778542
   0.73333333  0.86666667  0.56778542
   0.73333333  0.86666667  0.43219155
   0.93333333  0.46666667  0.56778542
   0.73333333  0.66666667  0.43219155
   0.73333333  0.66666667  0.56778542
   0.93333333  0.46666667  0.43219155
   0.93333333  0.26666667  0.43219155
   0.73333333  0.46666667  0.43219155
   0.73333333  0.46666667  0.56778542
   0.53333333  0.86666667  0.43219155
   0.13333333  0.66666667  0.43219155
   0.13333333  0.86666667  0.56778542
   0.13333333  0.86666667  0.43219155
   0.33333333  0.06666667  0.43219155
   0.33333333  0.26666667  0.56778542
   0.33333333  0.06666667  0.56778542
   0.13333333  0.66666667  0.56778542
   0.13333333  0.06666667  0.56778542
   0.13333333  0.06666667  0.43219155
   0.13333333  0.26666667  0.56778542
   0.13333333  0.26666667  0.43219155
   0.13333333  0.46666667  0.56778542
   0.13333333  0.46666667  0.43219155
   0.33333333  0.26666667  0.43219155
   0.33333333  0.46666667  0.56778542
   0.53333333  0.26666667  0.56778542
   0.53333333  0.26666667  0.43219155
   0.53333333  0.46666667  0.56778542
   0.53333333  0.46666667  0.43219155
   0.53333333  0.66666667  0.56778542
   0.53333333  0.66666667  0.43219155
   0.53333333  0.86666667  0.56778542
   0.33333333  0.46666667  0.43219155
   0.33333333  0.66666667  0.56778542
   0.33333333  0.66666667  0.43219155
   0.33333333  0.86666667  0.56778542
   0.33333333  0.86666667  0.43219155
   0.53333333  0.06666667  0.56778542
   0.53333333  0.06666667  0.43219155
   0.93333333  0.86666667  0.43219155
 
 position of ions in cartesian coordinates  (Angst):
  11.07595795  0.91352961 11.56857353
   9.49367824  9.13529615 11.56857353
  12.65823766  3.65411846 11.56857353
   7.91139854  6.39470730 11.56857353
   6.32911883  3.65411846 11.56857353
   7.91139854-10.04882576 11.56857353
   4.74683912  0.91352961 11.56857353
   4.74683912 -4.56764807 11.56857353
   6.32911883 -7.30823692 11.56857353
  11.07595795  6.39470730 11.56857353
   9.49367824  3.65411846 11.56857353
   7.91139854 -4.56764807 11.56857353
   7.91139854  0.91352961 11.56857353
   9.49367824 -1.82705923 11.56857353
   6.32911883 -1.82705923 11.56857353
   9.49367824 -7.30823692 11.56857353
   3.16455941 -1.82705923 11.56857353
   6.32911883  9.13529615 11.56857353
  12.65823766 -1.82705923 11.56857353
   4.74683912  6.39470730 11.56857353
  11.07595795 -4.56764807 11.56857353
   3.16455941  3.65411846 11.56857353
  14.24051736  0.91352961 11.56857353
   1.58227971  0.91352961 11.56857353
   7.91139854 11.87588499 11.56857353
   7.91139854 -6.39470730 13.13737698
  12.65823766 -3.65411846 10.00001616
   7.91139854 -6.39470730 10.00001616
   9.49367824 -9.13529615 13.13737698
   7.91139854-11.87588499 10.00001616
  12.65823766 -3.65411846 13.13737698
   6.32911883 -9.13529615 10.00001616
   6.32911883 -9.13529615 13.13737698
  14.24051736 -0.91352961 13.13737698
   7.91139854-11.87588499 13.13737698
  12.65823766  1.82705923 13.13737698
  12.65823766  1.82705923 10.00001616
  11.07595795 -6.39470730 13.13737698
  11.07595795 -0.91352961 10.00001616
  11.07595795 -0.91352961 13.13737698
  11.07595795 -6.39470730 10.00001616
   9.49367824 -9.13529615 10.00001616
   9.49367824 -3.65411846 10.00001616
   9.49367824 -3.65411846 13.13737698
  11.07595795  4.56764807 10.00001616
   6.32911883  7.30823692 10.00001616
   7.91139854 10.04882576 13.13737698
   7.91139854 10.04882576 10.00001616
   3.16455941 -3.65411846 10.00001616
   4.74683912 -0.91352961 13.13737698
   3.16455941 -3.65411846 13.13737698
   6.32911883  7.30823692 13.13737698
   1.58227971 -0.91352961 13.13737698
   1.58227971 -0.91352961 10.00001616
   3.16455941  1.82705923 13.13737698
   3.16455941  1.82705923 10.00001616
   4.74683912  4.56764807 13.13737698
   4.74683912  4.56764807 10.00001616
   4.74683912 -0.91352961 10.00001616
   6.32911883  1.82705923 13.13737698
   6.32911883 -3.65411846 13.13737698
   6.32911883 -3.65411846 10.00001616
   7.91139854 -0.91352961 13.13737698
   7.91139854 -0.91352961 10.00001616
   9.49367824  1.82705923 13.13737698
   9.49367824  1.82705923 10.00001616
  11.07595795  4.56764807 13.13737698
   6.32911883  1.82705923 10.00001616
   7.91139854  4.56764807 13.13737698
   7.91139854  4.56764807 10.00001616
   9.49367824  7.30823692 13.13737698
   9.49367824  7.30823692 10.00001616
   4.74683912 -6.39470730 13.13737698
   4.74683912 -6.39470730 10.00001616
  14.24051736 -0.91352961 10.00001616
 


--------------------------------------------------------------------------------------------------------


 k-point   1 :   0.0000 0.0000 0.0000  plane waves:  167445
 k-point   2 :   0.1111-0.0000 0.0000  plane waves:  167431
 k-point   3 :   0.2222 0.0000 0.0000  plane waves:  167395
 k-point   4 :   0.3333 0.0000 0.0000  plane waves:  167407
 k-point   5 :   0.4444 0.0000 0.0000  plane waves:  167424
 k-point   6 :   0.1111 0.1111 0.0000  plane waves:  167395
 k-point   7 :   0.2222 0.1111 0.0000  plane waves:  167432
 k-point   8 :   0.3333 0.1111 0.0000  plane waves:  167395
 k-point   9 :   0.4444 0.1111 0.0000  plane waves:  167436
 k-point  10 :   0.2222 0.2222 0.0000  plane waves:  167478
 k-point  11 :   0.3333 0.2222 0.0000  plane waves:  167437
 k-point  12 :   0.3333 0.3333 0.0000  plane waves:  167430

 maximum and minimum number of plane-waves per node :     10516    10428

 maximum number of plane-waves:    167478
 maximum index in each direction: 
   IXMAX=   31   IYMAX=   31   IZMAX=   46
   IXMIN=  -32   IYMIN=  -31   IZMIN=  -46


 real space projection operators:
  total allocation   :      15579.89 KBytes
  max/ min on nodes  :        977.84        970.62


 parallel 3D FFT for wavefunctions:
    minimum data exchange during FFTs selected (reduces bandwidth)
 parallel 3D FFT for charge:
    minimum data exchange during FFTs selected (reduces bandwidth)


 total amount of memory used by VASP MPI-rank0   495768. kBytes
=======================================================================

   base      :      30000. kBytes
   nonlr-proj:       5625. kBytes
   fftplans  :       7969. kBytes
   grid      :      19445. kBytes
   one-center:        155. kBytes
   wavefun   :     432574. kBytes
 
     INWAV:  cpu time      0.0001: real time      0.0001
 initial charge density was supplied:
 number of electron     650.0000241 magnetization      -0.0000465
 keeping initial charge density in first step


--------------------------------------------------------------------------------------------------------


 Maximum index for non-local projection operator          244
 Maximum index for augmentation-charges          545 (set IRDMAX)


--------------------------------------------------------------------------------------------------------


 First call to EWALD:  gamma=   0.104
 Maximum number of real-space cells 3x 3x 2
 Maximum number of reciprocal cells 3x 3x 4

    FEWALD:  cpu time      0.0788: real time      0.0787


--------------------------------------- Iteration      1(   1)  ---------------------------------------


vdW kernel read from vdw_kernel.bindat
  0.0000  0.2424  0.5071  0.7962  1.1119  1.4567  1.8333  2.2446  2.6937  3.1842
  3.7199  4.3049  4.9438  5.6415  6.4036  7.2358  8.1446  9.1372 10.2212 11.4050
 12.6979 14.1099 15.6519 17.3360 19.1751 21.1837 23.3773 25.7729 28.3892 31.2465
 34.3669 37.7748 41.4965 45.5611 50.0000
 
    POTLOK:  cpu time      7.6608: real time      7.6625
    SETDIJ:  cpu time      3.3918: real time      3.3914
     EDDAV:  cpu time     47.2774: real time     47.3218
 BZINTS: Fermi energy:   10.056134;  650.000000 electrons
         Band energy:-0.600959E+04;  BLOECHL correction:   -0.011349
       DOS:  cpu time      1.5300: real time      1.5294
    --------------------------------------------
      LOOP:  cpu time     59.8601: real time     59.9052

 eigenvalue-minimisations  : 24720
 total energy-change (2. order) : 0.5838706E+04  (-0.3298835E+05)
 number of electron     650.0000241 magnetization      -0.0000465
 augmentation part      650.0000241 magnetization      -0.0000465

 DIPCOR: dipole corrections for dipol
 direction  3 min pos     1,
 dipolmoment           0.000000      0.000000      0.002358 electrons x Angstroem
 Tr[quadrupol]    -27394.527144

 energy correction for charged system         0.000000 eV
 dipol+quadrupol energy correction           -0.000000 eV
 added-field ion interaction          0.000018 eV  (added to PSCEN)


 Free energy of the ion-electron system (eV)
  ---------------------------------------------------
  alpha Z        PSCENC =       589.35952694
  Ewald energy   TEWEN  =    184734.82817105
  -Hartree energ DENC   =   -236851.46234254
  -exchange      EXHF   =         0.00000000
  -V(xc)+E(xc)   XCENC  =      2272.09806355
  PAW double counting   =     73419.22191951   -72861.55139099
  entropy T*S    EENTRO =         0.00000000
  eigenvalues    EBANDS =     -6009.58581294
  atomic energy  EATOM  =     60545.79780431
  Solvation  Ediel_sol  =         0.00000000
  ---------------------------------------------------
  free energy    TOTEN  =      5838.70593889 eV

  energy without entropy =     5838.70593889  energy(sigma->0) =     5838.70593889


--------------------------------------------------------------------------------------------------------




--------------------------------------- Iteration      1(   2)  ---------------------------------------


     EDDAV:  cpu time     52.7659: real time     52.7544
 WARNING: Fermi level nearly degenerate with energies of tetrahedron. This may
     result in numerical instabilities because the density changes by tiny
     changes of the Fermi energy. If the calculation converges, the total
     energy will still be reliable. If you notice convergence issues, you can
     try to
     *) Use a Gamma centered k-point grid
     *) Use tetrahedron method without corrections ISMEAR = -4
     *) Don't use tetrahedron method
        ISMEAR = 0 for semiconductors, 1 or 2 for metals

 BZINTS: Fermi energy:   -0.441035;  650.000000 electrons
         Band energy:-0.115891E+05;  BLOECHL correction:   -0.003416
       DOS:  cpu time      1.5222: real time      1.5218
    --------------------------------------------
      LOOP:  cpu time     54.2881: real time     54.2762

 eigenvalue-minimisations  : 28736
 total energy-change (2. order) :-0.5579485E+04  (-0.5370692E+04)
 number of electron     650.0000241 magnetization      -0.0000465
 augmentation part      650.0000241 magnetization      -0.0000465

 DIPCOR: dipole corrections for dipol
 direction  3 min pos     1,
 dipolmoment           0.000000      0.000000      0.002358 electrons x Angstroem
 Tr[quadrupol]    -27394.527144

 energy correction for charged system         0.000000 eV
 dipol+quadrupol energy correction           -0.000000 eV
 added-field ion interaction          0.000018 eV  (added to PSCEN)


 Free energy of the ion-electron system (eV)
  ---------------------------------------------------
  alpha Z        PSCENC =       589.35952694
  Ewald energy   TEWEN  =    184734.82817105
  -Hartree energ DENC   =   -236851.46234254
  -exchange      EXHF   =         0.00000000
  -V(xc)+E(xc)   XCENC  =      2272.09806355
  PAW double counting   =     73419.22191951   -72861.55139099
  entropy T*S    EENTRO =         0.00000000
  eigenvalues    EBANDS =    -11589.07127129
  atomic energy  EATOM  =     60545.79780431
  Solvation  Ediel_sol  =         0.00000000
  ---------------------------------------------------
  free energy    TOTEN  =       259.22048054 eV

  energy without entropy =      259.22048054  energy(sigma->0) =      259.22048054


--------------------------------------------------------------------------------------------------------




--------------------------------------- Iteration      1(   3)  ---------------------------------------


     EDDAV:  cpu time     46.6361: real time     46.6250
 BZINTS: Fermi energy:   -2.543755;  650.000000 electrons
         Band energy:-0.122283E+05;  BLOECHL correction:   -0.000000
       DOS:  cpu time      1.4106: real time      1.4103
    --------------------------------------------
      LOOP:  cpu time     48.0467: real time     48.0353

 eigenvalue-minimisations  : 24680
 total energy-change (2. order) :-0.6392593E+03  (-0.6300874E+03)
 number of electron     650.0000241 magnetization      -0.0000465
 augmentation part      650.0000241 magnetization      -0.0000465

 DIPCOR: dipole corrections for dipol
 direction  3 min pos     1,
 dipolmoment           0.000000      0.000000      0.002358 electrons x Angstroem
 Tr[quadrupol]    -27394.527144

 energy correction for charged system         0.000000 eV
 dipol+quadrupol energy correction           -0.000000 eV
 added-field ion interaction          0.000018 eV  (added to PSCEN)


 Free energy of the ion-electron system (eV)
  ---------------------------------------------------
  alpha Z        PSCENC =       589.35952694
  Ewald energy   TEWEN  =    184734.82817105
  -Hartree energ DENC   =   -236851.46234254
  -exchange      EXHF   =         0.00000000
  -V(xc)+E(xc)   XCENC  =      2272.09806355
  PAW double counting   =     73419.22191951   -72861.55139099
  entropy T*S    EENTRO =         0.00000000
  eigenvalues    EBANDS =    -12228.33052687
  atomic energy  EATOM  =     60545.79780431
  Solvation  Ediel_sol  =         0.00000000
  ---------------------------------------------------
  free energy    TOTEN  =      -380.03877505 eV

  energy without entropy =     -380.03877505  energy(sigma->0) =     -380.03877505


--------------------------------------------------------------------------------------------------------




--------------------------------------- Iteration      1(   4)  ---------------------------------------


     EDDAV:  cpu time     46.7291: real time     46.7190
 BZINTS: Fermi energy:   -2.661046;  650.000000 electrons
         Band energy:-0.122489E+05;  BLOECHL correction:   -0.000000
       DOS:  cpu time      1.4091: real time      1.4088
    --------------------------------------------
      LOOP:  cpu time     48.1382: real time     48.1278

 eigenvalue-minimisations  : 24840
 total energy-change (2. order) :-0.2056874E+02  (-0.2022297E+02)
 number of electron     650.0000241 magnetization      -0.0000465
 augmentation part      650.0000241 magnetization      -0.0000465

 DIPCOR: dipole corrections for dipol
 direction  3 min pos     1,
 dipolmoment           0.000000      0.000000      0.002358 electrons x Angstroem
 Tr[quadrupol]    -27394.527144

 energy correction for charged system         0.000000 eV
 dipol+quadrupol energy correction           -0.000000 eV
 added-field ion interaction          0.000018 eV  (added to PSCEN)


 Free energy of the ion-electron system (eV)
  ---------------------------------------------------
  alpha Z        PSCENC =       589.35952694
  Ewald energy   TEWEN  =    184734.82817105
  -Hartree energ DENC   =   -236851.46234254
  -exchange      EXHF   =         0.00000000
  -V(xc)+E(xc)   XCENC  =      2272.09806355
  PAW double counting   =     73419.22191951   -72861.55139099
  entropy T*S    EENTRO =         0.00000000
  eigenvalues    EBANDS =    -12248.89926467
  atomic energy  EATOM  =     60545.79780431
  Solvation  Ediel_sol  =         0.00000000
  ---------------------------------------------------
  free energy    TOTEN  =      -400.60751285 eV

  energy without entropy =     -400.60751285  energy(sigma->0) =     -400.60751285


--------------------------------------------------------------------------------------------------------




--------------------------------------- Iteration      1(   5)  ---------------------------------------


     EDDAV:  cpu time     51.2354: real time     51.2254
 BZINTS: Fermi energy:   -2.663280;  650.000000 electrons
         Band energy:-0.122496E+05;  BLOECHL correction:   -0.000000
       DOS:  cpu time      1.3860: real time      1.3857
    --------------------------------------------
      LOOP:  cpu time     52.6214: real time     52.6111

 eigenvalue-minimisations  : 27928
 total energy-change (2. order) :-0.6842332E+00  (-0.6776055E+00)
 number of electron     650.0000241 magnetization      -0.0000465
 augmentation part      650.0000241 magnetization      -0.0000465

 DIPCOR: dipole corrections for dipol
 direction  3 min pos     1,
 dipolmoment           0.000000      0.000000      0.002358 electrons x Angstroem
 Tr[quadrupol]    -27394.527144

 energy correction for charged system         0.000000 eV
 dipol+quadrupol energy correction           -0.000000 eV
 added-field ion interaction          0.000018 eV  (added to PSCEN)


 Free energy of the ion-electron system (eV)
  ---------------------------------------------------
  alpha Z        PSCENC =       589.35952694
  Ewald energy   TEWEN  =    184734.82817105
  -Hartree energ DENC   =   -236851.46234254
  -exchange      EXHF   =         0.00000000
  -V(xc)+E(xc)   XCENC  =      2272.09806355
  PAW double counting   =     73419.22191951   -72861.55139099
  entropy T*S    EENTRO =         0.00000000
  eigenvalues    EBANDS =    -12249.58349788
  atomic energy  EATOM  =     60545.79780431
  Solvation  Ediel_sol  =         0.00000000
  ---------------------------------------------------
  free energy    TOTEN  =      -401.29174606 eV

  energy without entropy =     -401.29174606  energy(sigma->0) =     -401.29174606


--------------------------------------------------------------------------------------------------------




--------------------------------------- Iteration      1(   6)  ---------------------------------------


     EDDAV:  cpu time     49.8423: real time     49.8310
 BZINTS: Fermi energy:   -2.663363;  650.000000 electrons
         Band energy:-0.122496E+05;  BLOECHL correction:   -0.000000
       DOS:  cpu time      1.4259: real time      1.4257
    --------------------------------------------
      LOOP:  cpu time     51.2682: real time     51.2566

 eigenvalue-minimisations  : 26528
 total energy-change (2. order) :-0.2285525E-01  (-0.2266947E-01)
 number of electron     650.0000241 magnetization      -0.0000465
 augmentation part      650.0000241 magnetization      -0.0000465

 DIPCOR: dipole corrections for dipol
 direction  3 min pos     1,
 dipolmoment           0.000000      0.000000      0.002358 electrons x Angstroem
 Tr[quadrupol]    -27394.527144

 energy correction for charged system         0.000000 eV
 dipol+quadrupol energy correction           -0.000000 eV
 added-field ion interaction          0.000018 eV  (added to PSCEN)


 Free energy of the ion-electron system (eV)
  ---------------------------------------------------
  alpha Z        PSCENC =       589.35952694
  Ewald energy   TEWEN  =    184734.82817105
  -Hartree energ DENC   =   -236851.46234254
  -exchange      EXHF   =         0.00000000
  -V(xc)+E(xc)   XCENC  =      2272.09806355
  PAW double counting   =     73419.22191951   -72861.55139099
  entropy T*S    EENTRO =         0.00000000
  eigenvalues    EBANDS =    -12249.60635313
  atomic energy  EATOM  =     60545.79780431
  Solvation  Ediel_sol  =         0.00000000
  ---------------------------------------------------
  free energy    TOTEN  =      -401.31460131 eV

  energy without entropy =     -401.31460131  energy(sigma->0) =     -401.31460131


--------------------------------------------------------------------------------------------------------




--------------------------------------- Iteration      1(   7)  ---------------------------------------


     EDDAV:  cpu time     51.7984: real time     51.7865
 BZINTS: Fermi energy:   -2.663367;  650.000000 electrons
         Band energy:-0.122496E+05;  BLOECHL correction:   -0.000000
       DOS:  cpu time      1.4308: real time      1.4301
    --------------------------------------------
      LOOP:  cpu time     53.2291: real time     53.2167

 eigenvalue-minimisations  : 28184
 total energy-change (2. order) :-0.1097815E-02  (-0.1093314E-02)
 number of electron     650.0000241 magnetization      -0.0000465
 augmentation part      650.0000241 magnetization      -0.0000465

 DIPCOR: dipole corrections for dipol
 direction  3 min pos     1,
 dipolmoment           0.000000      0.000000      0.002358 electrons x Angstroem
 Tr[quadrupol]    -27394.527144

 energy correction for charged system         0.000000 eV
 dipol+quadrupol energy correction           -0.000000 eV
 added-field ion interaction          0.000018 eV  (added to PSCEN)


 Free energy of the ion-electron system (eV)
  ---------------------------------------------------
  alpha Z        PSCENC =       589.35952694
  Ewald energy   TEWEN  =    184734.82817105
  -Hartree energ DENC   =   -236851.46234254
  -exchange      EXHF   =         0.00000000
  -V(xc)+E(xc)   XCENC  =      2272.09806355
  PAW double counting   =     73419.22191951   -72861.55139099
  entropy T*S    EENTRO =         0.00000000
  eigenvalues    EBANDS =    -12249.60745095
  atomic energy  EATOM  =     60545.79780431
  Solvation  Ediel_sol  =         0.00000000
  ---------------------------------------------------
  free energy    TOTEN  =      -401.31569912 eV

  energy without entropy =     -401.31569912  energy(sigma->0) =     -401.31569912


--------------------------------------------------------------------------------------------------------




--------------------------------------- Iteration      1(   8)  ---------------------------------------


     EDDAV:  cpu time     47.1713: real time     47.1604
 BZINTS: Fermi energy:   -2.663367;  650.000000 electrons
         Band energy:-0.122496E+05;  BLOECHL correction:   -0.000000
       DOS:  cpu time      1.4100: real time      1.4097
    --------------------------------------------
      LOOP:  cpu time     48.5813: real time     48.5701

 eigenvalue-minimisations  : 24664
 total energy-change (2. order) :-0.3726475E-04  (-0.3711679E-04)
 number of electron     650.0000241 magnetization      -0.0000465
 augmentation part      650.0000241 magnetization      -0.0000465

 DIPCOR: dipole corrections for dipol
 direction  3 min pos     1,
 dipolmoment           0.000000      0.000000      0.002358 electrons x Angstroem
 Tr[quadrupol]    -27394.527144

 energy correction for charged system         0.000000 eV
 dipol+quadrupol energy correction           -0.000000 eV
 added-field ion interaction          0.000018 eV  (added to PSCEN)


 Free energy of the ion-electron system (eV)
  ---------------------------------------------------
  alpha Z        PSCENC =       589.35952694
  Ewald energy   TEWEN  =    184734.82817105
  -Hartree energ DENC   =   -236851.46234254
  -exchange      EXHF   =         0.00000000
  -V(xc)+E(xc)   XCENC  =      2272.09806355
  PAW double counting   =     73419.22191951   -72861.55139099
  entropy T*S    EENTRO =         0.00000000
  eigenvalues    EBANDS =    -12249.60748821
  atomic energy  EATOM  =     60545.79780431
  Solvation  Ediel_sol  =         0.00000000
  ---------------------------------------------------
  free energy    TOTEN  =      -401.31573639 eV

  energy without entropy =     -401.31573639  energy(sigma->0) =     -401.31573639


--------------------------------------------------------------------------------------------------------




--------------------------------------- Iteration      1(   9)  ---------------------------------------


     EDDAV:  cpu time     42.9922: real time     42.9796
 BZINTS: Fermi energy:   -2.663367;  650.000000 electrons
         Band energy:-0.122496E+05;  BLOECHL correction:   -0.000000
       DOS:  cpu time      1.4087: real time      1.4083
    --------------------------------------------
      LOOP:  cpu time     44.4009: real time     44.3879

 eigenvalue-minimisations  : 22236
 total energy-change (2. order) :-0.1706416E-05  (-0.1694731E-05)
 number of electron     650.0000241 magnetization      -0.0000465
 augmentation part      650.0000241 magnetization      -0.0000465

 DIPCOR: dipole corrections for dipol
 direction  3 min pos     1,
 dipolmoment           0.000000      0.000000      0.002358 electrons x Angstroem
 Tr[quadrupol]    -27394.527144

 energy correction for charged system         0.000000 eV
 dipol+quadrupol energy correction           -0.000000 eV
 added-field ion interaction          0.000018 eV  (added to PSCEN)


 Free energy of the ion-electron system (eV)
  ---------------------------------------------------
  alpha Z        PSCENC =       589.35952694
  Ewald energy   TEWEN  =    184734.82817105
  -Hartree energ DENC   =   -236851.46234254
  -exchange      EXHF   =         0.00000000
  -V(xc)+E(xc)   XCENC  =      2272.09806355
  PAW double counting   =     73419.22191951   -72861.55139099
  entropy T*S    EENTRO =         0.00000000
  eigenvalues    EBANDS =    -12249.60748992
  atomic energy  EATOM  =     60545.79780431
  Solvation  Ediel_sol  =         0.00000000
  ---------------------------------------------------
  free energy    TOTEN  =      -401.31573809 eV

  energy without entropy =     -401.31573809  energy(sigma->0) =     -401.31573809


--------------------------------------------------------------------------------------------------------




--------------------------------------- Iteration      1(  10)  ---------------------------------------


     EDDAV:  cpu time     35.5382: real time     35.5299
 BZINTS: Fermi energy:   -2.663367;  650.000000 electrons
         Band energy:-0.122496E+05;  BLOECHL correction:   -0.000000
       DOS:  cpu time      1.4251: real time      1.4250
    --------------------------------------------
      LOOP:  cpu time     36.9634: real time     36.9549

 eigenvalue-minimisations  : 16932
 total energy-change (2. order) :-0.6123446E-07  (-0.6333389E-07)
 number of electron     650.0000241 magnetization      -0.0000465
 augmentation part      650.0000241 magnetization      -0.0000465

 DIPCOR: dipole corrections for dipol
 direction  3 min pos     1,
 dipolmoment           0.000000      0.000000      0.002358 electrons x Angstroem
 Tr[quadrupol]    -27394.527144

 energy correction for charged system         0.000000 eV
 dipol+quadrupol energy correction           -0.000000 eV
 added-field ion interaction          0.000018 eV  (added to PSCEN)


 Free energy of the ion-electron system (eV)
  ---------------------------------------------------
  alpha Z        PSCENC =       589.35952694
  Ewald energy   TEWEN  =    184734.82817105
  -Hartree energ DENC   =   -236851.46234254
  -exchange      EXHF   =         0.00000000
  -V(xc)+E(xc)   XCENC  =      2272.09806355
  PAW double counting   =     73419.22191951   -72861.55139099
  entropy T*S    EENTRO =         0.00000000
  eigenvalues    EBANDS =    -12249.60748998
  atomic energy  EATOM  =     60545.79780431
  Solvation  Ediel_sol  =         0.00000000
  ---------------------------------------------------
  free energy    TOTEN  =      -401.31573815 eV

  energy without entropy =     -401.31573815  energy(sigma->0) =     -401.31573815


--------------------------------------------------------------------------------------------------------




 average (electrostatic) potential at core
  the test charge radii are     1.0818  0.9698
  (the norm of the test charge is              1.0000)
       1 -84.1410       2 -84.1410       3 -84.1410       4 -84.1410       5 -84.1410
       6 -84.1410       7 -84.1410       8 -84.1410       9 -84.1410      10 -84.1410
      11 -84.1410      12 -84.1410      13 -84.1410      14 -84.1410      15 -84.1410
      16 -84.1410      17 -84.1410      18 -84.1410      19 -84.1410      20 -84.1410
      21 -84.1410      22 -84.1410      23 -84.1410      24 -84.1410      25 -84.1410
      26 -93.8425      27 -93.8445      28 -93.8446      29 -93.8425      30 -93.8446
      31 -93.8425      32 -93.8445      33 -93.8425      34 -93.8425      35 -93.8425
      36 -93.8425      37 -93.8446      38 -93.8425      39 -93.8445      40 -93.8425
      41 -93.8446      42 -93.8445      43 -93.8446      44 -93.8425      45 -93.8446
      46 -93.8446      47 -93.8425      48 -93.8446      49 -93.8445      50 -93.8425
      51 -93.8425      52 -93.8425      53 -93.8425      54 -93.8446      55 -93.8425
      56 -93.8446      57 -93.8425      58 -93.8446      59 -93.8445      60 -93.8425
      61 -93.8425      62 -93.8446      63 -93.8425      64 -93.8446      65 -93.8425
      66 -93.8446      67 -93.8425      68 -93.8446      69 -93.8425      70 -93.8445
      71 -93.8425      72 -93.8446      73 -93.8425      74 -93.8446      75 -93.8446
 
 
 
 E-fermi :  -2.6634     XC(G=0):  -3.8147     alpha+bet : -3.5969

 Fermi energy:        -2.6633672800

 spin component 1

 k-point     1 :       0.0000    0.0000    0.0000
  band No.  band energies     occupation 
      1     -63.4561      1.00000
      2     -63.4422      1.00000
      3     -63.4422      1.00000
      4     -63.4422      1.00000
      5     -63.4422      1.00000
      6     -63.4422      1.00000
      7     -63.4422      1.00000
      8     -63.4240      1.00000
      9     -63.4240      1.00000
     10     -63.4240      1.00000
     11     -63.4240      1.00000
     12     -63.4240      1.00000
     13     -63.4240      1.00000
     14     -63.4196      1.00000
     15     -63.4196      1.00000
     16     -63.4196      1.00000
     17     -63.4196      1.00000
     18     -63.4196      1.00000
     19     -63.4196      1.00000
     20     -63.4126      1.00000
     21     -63.4126      1.00000
     22     -63.4126      1.00000
     23     -63.4126      1.00000
     24     -63.4126      1.00000
     25     -63.4126      1.00000
     26     -37.7592      1.00000
     27     -37.7592      1.00000
     28     -37.7592      1.00000
     29     -37.7592      1.00000
     30     -37.7592      1.00000
     31     -37.7592      1.00000
     32     -37.7505      1.00000
     33     -37.7505      1.00000
     34     -37.7505      1.00000
     35     -37.7505      1.00000
     36     -37.7505      1.00000
     37     -37.7505      1.00000
     38     -37.6835      1.00000
     39     -37.6835      1.00000
     40     -37.6835      1.00000
     41     -37.6835      1.00000
     42     -37.6834      1.00000
     43     -37.6834      1.00000
     44     -37.6320      1.00000
     45     -37.6049      1.00000
     46     -37.6049      1.00000
     47     -37.6049      1.00000
     48     -37.6049      1.00000
     49     -37.6049      1.00000
     50     -37.6049      1.00000
     51     -37.5795      1.00000
     52     -37.5795      1.00000
     53     -37.5795      1.00000
     54     -37.5795      1.00000
     55     -37.5795      1.00000
     56     -37.5795      1.00000
     57     -37.5692      1.00000
     58     -37.5692      1.00000
     59     -37.5692      1.00000
     60     -37.5692      1.00000
     61     -37.5692      1.00000
     62     -37.5692      1.00000
     63     -37.5607      1.00000
     64     -37.5607      1.00000
     65     -37.5607      1.00000
     66     -37.5607      1.00000
     67     -37.5607      1.00000
     68     -37.5607      1.00000
     69     -37.5470      1.00000
     70     -37.5470      1.00000
     71     -37.5470      1.00000
     72     -37.5470      1.00000
     73     -37.5470      1.00000
     74     -37.5470      1.00000
     75     -37.5423      1.00000
     76     -37.5423      1.00000
     77     -37.5423      1.00000
     78     -37.5423      1.00000
     79     -37.5423      1.00000
     80     -37.5423      1.00000
     81     -37.5131      1.00000
     82     -37.5131      1.00000
     83     -37.5131      1.00000
     84     -37.5131      1.00000
     85     -37.5131      1.00000
     86     -37.5131      1.00000
     87     -37.4867      1.00000
     88     -37.4867      1.00000
     89     -37.4867      1.00000
     90     -37.4867      1.00000
     91     -37.4866      1.00000
     92     -37.4866      1.00000
     93     -37.4361      1.00000
     94     -37.4361      1.00000
     95     -37.4361      1.00000
     96     -37.4361      1.00000
     97     -37.4360      1.00000
     98     -37.4360      1.00000
     99     -37.4045      1.00000
    100     -37.4045      1.00000
    101     -16.7237      1.00000
    102     -16.1583      1.00000
    103     -16.1583      1.00000
    104     -16.1583      1.00000
    105     -16.1583      1.00000
    106     -16.1582      1.00000
    107     -16.1582      1.00000
    108     -15.4330      1.00000
    109     -15.2897      1.00000
    110     -15.2896      1.00000
    111     -15.2896      1.00000
    112     -15.2896      1.00000
    113     -15.2896      1.00000
    114     -15.2896      1.00000
    115     -15.1981      1.00000
    116     -15.1981      1.00000
    117     -15.1981      1.00000
    118     -15.1981      1.00000
    119     -15.1981      1.00000
    120     -15.1980      1.00000
    121     -15.0383      1.00000
    122     -15.0383      1.00000
    123     -15.0383      1.00000
    124     -15.0383      1.00000
    125     -15.0382      1.00000
    126     -15.0382      1.00000
    127     -14.8346      1.00000
    128     -14.8346      1.00000
    129     -14.8346      1.00000
    130     -14.8346      1.00000
    131     -14.8346      1.00000
    132     -14.8345      1.00000
    133     -14.7486      1.00000
    134     -14.7485      1.00000
    135     -14.7485      1.00000
    136     -14.7485      1.00000
    137     -14.7485      1.00000
    138     -14.7485      1.00000
    139     -14.6373      1.00000
    140     -14.6373      1.00000
    141     -14.6373      1.00000
    142     -14.6373      1.00000
    143     -14.6372      1.00000
    144     -14.6372      1.00000
    145     -14.5576      1.00000
    146     -14.5576      1.00000
    147     -14.5576      1.00000
    148     -14.5576      1.00000
    149     -14.5576      1.00000
    150     -14.5575      1.00000
    151      -8.2718      1.00000
    152      -8.1902      1.00000
    153      -8.1902      1.00000
    154      -8.1901      1.00000
    155      -8.1901      1.00000
    156      -8.1900      1.00000
    157      -8.1900      1.00000
    158      -7.8656      1.00000
    159      -7.8656      1.00000
    160      -7.8654      1.00000
    161      -7.8654      1.00000
    162      -7.8654      1.00000
    163      -7.8654      1.00000
    164      -7.8241      1.00000
    165      -7.8241      1.00000
    166      -7.8241      1.00000
    167      -7.8241      1.00000
    168      -7.8240      1.00000
    169      -7.8240      1.00000
    170      -7.7207      1.00000
    171      -7.7207      1.00000
    172      -7.7207      1.00000
    173      -7.7207      1.00000
    174      -7.7207      1.00000
    175      -7.7207      1.00000
    176      -7.6684      1.00000
    177      -7.6684      1.00000
    178      -7.6684      1.00000
    179      -7.6684      1.00000
    180      -7.6683      1.00000
    181      -7.6683      1.00000
    182      -7.2092      1.00000
    183      -7.2092      1.00000
    184      -7.2092      1.00000
    185      -7.2091      1.00000
    186      -7.2091      1.00000
    187      -7.2091      1.00000
    188      -6.8419      1.00000
    189      -6.8419      1.00000
    190      -6.8418      1.00000
    191      -6.8418      1.00000
    192      -6.8418      1.00000
    193      -6.8418      1.00000
    194      -6.5975      1.00000
    195      -6.5975      1.00000
    196      -6.5975      1.00000
    197      -6.5975      1.00000
    198      -6.5975      1.00000
    199      -6.5975      1.00000
    200      -6.5426      1.00000
    201      -6.5426      1.00000
    202      -6.5426      1.00000
    203      -6.5426      1.00000
    204      -6.5425      1.00000
    205      -6.5425      1.00000
    206      -6.3375      1.00000
    207      -6.3375      1.00000
    208      -6.3375      1.00000
    209      -6.3375      1.00000
    210      -6.3375      1.00000
    211      -6.3375      1.00000
    212      -6.1907      1.00000
    213      -6.1907      1.00000
    214      -6.1906      1.00000
    215      -6.1906      1.00000
    216      -6.1906      1.00000
    217      -6.1906      1.00000
    218      -5.9736      1.00000
    219      -5.9736      1.00000
    220      -5.9736      1.00000
    221      -5.9735      1.00000
    222      -5.9735      1.00000
    223      -5.9735      1.00000
    224      -5.8333      1.00000
    225      -5.8333      1.00000
    226      -5.8331      1.00000
    227      -5.8331      1.00000
    228      -5.8331      1.00000
    229      -5.8331      1.00000
    230      -5.7291      1.00000
    231      -5.7291      1.00000
    232      -5.7290      1.00000
    233      -5.7290      1.00000
    234      -5.7290      1.00000
    235      -5.7290      1.00000
    236      -5.6567      1.00000
    237      -5.6567      1.00000
    238      -5.6567      1.00000
    239      -5.6567      1.00000
    240      -5.6566      1.00000
    241      -5.6566      1.00000
    242      -5.3379      1.00000
    243      -5.3379      1.00000
    244      -5.3379      1.00000
    245      -5.3379      1.00000
    246      -5.3378      1.00000
    247      -5.3378      1.00000
    248      -5.2105      1.00000
    249      -5.2105      1.00000
    250      -4.8570      1.00000
    251      -4.8570      1.00000
    252      -4.8570      1.00000
    253      -4.8570      1.00000
    254      -4.8569      1.00000
    255      -4.8569      1.00000
    256      -4.8268      1.00000
    257      -4.8268      1.00000
    258      -4.8268      1.00000
    259      -4.8268      1.00000
    260      -4.8266      1.00000
    261      -4.8266      1.00000
    262      -4.6339      1.00000
    263      -4.6339      1.00000
    264      -4.6339      1.00000
    265      -4.6339      1.00000
    266      -4.6339      1.00000
    267      -4.6339      1.00000
    268      -4.6014      1.00000
    269      -4.6014      1.00000
    270      -4.6013      1.00000
    271      -4.6013      1.00000
    272      -4.6013      1.00000
    273      -4.6013      1.00000
    274      -4.4842      1.00000
    275      -4.4649      1.00000
    276      -4.4649      1.00000
    277      -4.4648      1.00000
    278      -4.4648      1.00000
    279      -4.4648      1.00000
    280      -4.4648      1.00000
    281      -4.0933      1.00000
    282      -4.0930      1.00000
    283      -3.8834      1.00000
    284      -3.8834      1.00000
    285      -3.8834      1.00000
    286      -3.8834      1.00000
    287      -3.8834      1.00000
    288      -3.8834      1.00000
    289      -3.8085      1.00000
    290      -3.8085      1.00000
[...]
  224          setdij_                               0.117647                          6   4
  225            m_sumb_d                              0.009365                        6   5
  226          m_sumb_d                              0.000095                          1   4
  227        setdij_                               0.394207                           20   3
  228          m_sumb_d                              0.034895                         20   4
  229        set_dd_magatom                        0.000001                            1   3
  230        set_dd_paw                            2.832777                            1   3
  231          set_rsgf_all                          0.000002                          1   4
  232          m_sumb_d                              2.832354                          8   4
  233        strkin                                0.028288                            1   3
  234          m_sumb_d                              0.002167                          1   4
  235        strelo                                0.023881                            1   3
  236          m_sumb_d                              0.000619                          2   4
  237        strnlr                               19.131363                            1   3
  238          rspher_all                            0.098875                          9   4
  239          phaser                                0.057437                         18   4
  240          rpro_isp                             18.251021                         18   4
  241            fftwav_mpi                           15.901209                     3852   5
  242              fft3d_mpi                            13.298211                   3852   6
  243                fftbas_mpi                           13.282554                 3852   7
  244                  fftbas_plan_mpi                      13.270507               3852   8
  245                    dfftw_execute                         5.426857            11556   9
  246                    map_forward                           5.875090             7704   9
  247                      map_gather                            0.908717           3852  10
  248                      m_alltoallv_z                         2.348854           3852  10
  249                      map_scatter                           1.195267           3852  10
  250            rpromu                                2.320976                      972   5
  251              crrexp_mul_wave                       0.720014                 288900   6
  252              rpromu_gemm                           0.757790                  72900   6
  253              m_sumb_d                              0.287135                   3852   6
  254          m_sumb_d                              0.693504                         10   4
  255        m_sumb_d                              0.003063                            7   3
  256        fft3d_mpi                             0.869724                           82   3
  257          fftbrc_mpi                            0.824113                         82   4
  258            fftbas_plan_mpi                       0.823875                       82   5
  259              dfftw_execute                         0.203932                    246   6
  260              map_forward                           0.242002                     80   6
  261                map_gather                            0.070301                   40   7
  262                m_alltoallv_z                         0.144018                   40   7
  263                map_scatter                           0.026923                   40   7
  264              map_backward                          0.327678                     84   6
  265                map_gather                            0.031761                   42   7
  266                m_alltoallv_z                         0.171011                   42   7
  267                map_scatter                           0.123991                   42   7
  268        forhar                                0.484224                            2   3
  269          m_sumb_d                              0.001504                          2   4
  270        strehar                               0.013108                            1   3
  271          m_sumb_d                              0.000177                          1   4
  272        chggra                                0.046033                            1   3
  273          fft3d_mpi                             0.031776                          3   4
  274            fftbrc_mpi                            0.030240                        3   5
  275              fftbas_plan_mpi                       0.030232                      3   6
  276                dfftw_execute                         0.007144                    9   7
  277                map_backward                          0.008276                    2   7
  278                  map_gather                            0.000901                  1   8
  279                  m_alltoallv_z                         0.003079                  1   8
  280                  map_scatter                           0.004265                  1   8
  281                map_forward                           0.012983                    4   7
  282                  map_gather                            0.004721                  2   8
  283                  m_alltoallv_z                         0.006715                  2   8
  284                  map_scatter                           0.001502                  2   8
  285          m_sumb_d                              0.000125                          2   4
  286          pothar                                0.003848                          1   4
  287            m_sumb_d                              0.000504                        1   5
  288        m_bcast_d                             0.467706                            2   3
  289      potlok                                6.512604                              1   2
  290        fft3d_mpi                             0.941212                           86   3
  291          fftbrc_mpi                            0.894767                         86   4
  292            fftbas_plan_mpi                       0.894507                       86   5
  293              dfftw_execute                         0.206091                    258   6
  294              map_forward                           0.268772                     88   6
  295                map_gather                            0.075723                   46   7
  296                m_alltoallv_z                         0.162269                   46   7
  297                map_scatter                           0.029884                   46   7
  298              map_backward                          0.366771                     84   6
  299                map_gather                            0.031804                   42   7
  300                m_alltoallv_z                         0.207818                   42   7
  301                map_scatter                           0.126363                   42   7
  302        m_sumb_d                              0.008954                            8   3
  303        fewald                                0.001599                            2   3
  304          rsp                                   0.001374                          2   4
  305          rcp                                   0.000195                          2   4
  306        pothar                                0.001976                            1   3
  307          m_sumb_d                              0.000314                          1   4
  308        m_bcast_d                             0.004083                            2   3
  309      potlok_metagga                        0.000001                              1   2
  310      set_dd_magatom                        0.000001                              1   2
  311      set_dd_paw                            3.212070                              1   2
  312        set_rsgf_all                          0.000001                            1   3
  313        m_sumb_d                              3.211668                            8   3
  314      densta                             1438.425519                              1   2
  315        m_bcast_z                             0.000932                            1   3
 
 Flat profile
 ============
 
             routine name                   CPU           calls
 ---------------------------------------------------------------
 densta                               1451.724929          11
 total_time                            685.555405           1
 ggemm                                 155.461146        9582
 dfftw_execute                          65.785589      137544
 m_bcast_z                              45.557869       20287
 m_sumb_d                               45.422502       93293
 orth1                                  44.199212       22322
 eddav                                  39.637353          10
 m_alltoallv_z                          26.609426       45854
 fftbas_plan_mpi                        23.265440       45848
 sphpro_fast                            22.305119           2
 m_alltoall_d                           21.949437      109012
 fftwav_mpi                             18.358791       30924
 map_scatter                            14.310123       45854
 map_gather                             13.509437       45854
 vhamil                                 12.618495       14656
 potlok                                 12.235747           2
 map_forward                            10.927639       62118
 lincom                                  6.037997          44
 lapack                                  5.735569        7422
 force_and_stress                        5.610498           1
 crrexp_mul_work_add                     4.009836     1099200
 rpromu_gemm                             3.927915      488850
 gemm                                    3.797426      542550
 crrexp_mul_wave                         3.021391     1195500
 rpromu                                  2.609885        6518
 w1_copy                                 2.584128       43968
 racc0mu                                 2.519839        7234
 eccp                                    2.317466        4280
 redis_pw                                2.107447       39776
 set_charge                              1.846220           1
 fftext_mpi                              1.661108       14656
 m_bcast_d                               1.469260       15415
 kinhamil                                1.090104       14656
 apply_precond                           0.953419       10376
 redis_proj                              0.600636       50156
 overl                                   0.539558       25036
 setdij_                                 0.533092          29
 setup_precond                           0.493778        4280
 forhar                                  0.482720           2
 fft3d_mpi                               0.326499       45848
 stufak                                  0.305186           2
 map_backward                            0.272787       29578
 forloc                                  0.241631           1
 overl1                                  0.240448       14656
 elmin                                   0.220138           1
 phaser                                  0.213800          66
 inisym                                  0.208726           1
 hamiltmu                                0.195880        7422
 pw_charge                               0.194273         328
 newband                                 0.164713        7462
 rspher_all                              0.156340          14
 fftbas_mpi                              0.145899       45580
 racc0                                   0.093309         188
 choleski                                0.092900           4
 raccmu_                                 0.090742        7422
 rpro1                                   0.079646         148
 augmentation_charge                     0.053870           1
 rpro_isp                                0.044177          26
 w1_projall                              0.037663        5262
 strnlr                                  0.030526           1
 strkin                                  0.026121           1
 strelo                                  0.023262           1
 truncate_high_frequency_w1              0.018039       18936
 strehar                                 0.012931           1
 soft_charge                             0.010807           1
 fornlr                                  0.010646           1
 chggra                                  0.010283           1
 posmap                                  0.009013           2
 pothar                                  0.006952           3
 orthch                                  0.006676           1
 fewald                                  0.005573           5
 rsp                                     0.004518           5
 depsum                                  0.002311           1
 set_dd_paw                              0.001915           3
 fftbrc_mpi                              0.000804         268
 rcp                                     0.000507           5
 fft_gq                                  0.000381           1
 crpa_reader                             0.000248           1
 fordep                                  0.000182           1
 proall                                  0.000069           1
 vectorpot                               0.000031           2
 set_rsgf_all                            0.000022           3
 rotate_active_occupied_orbital          0.000018           1
 set_dd_magatom                          0.000013           3
 potlok_metagga                          0.000012           2
 redis_pw_over_bands                     0.000001           1
 ---------------------------------------------------------------
  summed up times    2766.94344305992     
 
 Accumulative profile
 ====================
 
             routine name                   CPU           calls
 ---------------------------------------------------------------
 total_time                           2766.943443           1
 densta                               1451.729623          11
 elmin                                 497.531106           1
 eddav                                 471.911036          10
 ggemm                                 155.461146        9582
 fft3d_mpi                             155.153642       45848
 fftbas_plan_mpi                       154.680440       45848
 fftbas_mpi                            152.058592       45580
 fftwav_mpi                            124.026503       30924
 hamiltmu                               74.499892        7422
 dfftw_execute                          65.785589      137544
 kinhamil                               49.324088       14656
 fftext_mpi                             48.233984       14656
 map_forward                            46.631943       62118
 m_bcast_z                              45.557869       20287
 m_sumb_d                               45.422502       93293
 orth1                                  44.199212       22322
 force_and_stress                       40.431313           1
 m_alltoallv_z                          26.609426       45854
 rpro_isp                               26.452807          26
 newband                                23.126686        7462
 sphpro_fast                            22.564537           2
 m_alltoall_d                           21.949437      109012
 strnlr                                 19.131363           1
 map_backward                           18.997469       29578
 redis_pw                               17.859428       39776
 map_scatter                            14.310123       45854
 potlok                                 14.169511           2
 map_gather                             13.509437       45854
 vhamil                                 12.618495       14656
 raccmu_                                12.361429        7422
 racc0mu                                11.854366        7234
 rpromu                                 11.023406        6518
 set_dd_paw                              9.407039           3
 w1_projall                              7.791575        5262
 redis_proj                              6.798093       50156
 fornlr                                  6.448037           1
 lincom                                  6.037997          44
 lapack                                  5.735569        7422
 crrexp_mul_work_add                     4.009836     1099200
 rpromu_gemm                             3.927915      488850
 gemm                                    3.797426      542550
 set_charge                              3.718678           1
 crrexp_mul_wave                         3.021391     1195500
 fftbrc_mpi                              2.768551         268
 w1_copy                                 2.584128       43968
 eccp                                    2.530838        4280
 proall                                  2.069285           1
 soft_charge                             1.576391           1
 m_bcast_d                               1.469260       15415
 orthch                                  1.145760           1
 apply_precond                           0.953419       10376
 setup_precond                           0.666114        4280
 setdij_                                 0.587220          29
 overl                                   0.539558       25036
 forhar                                  0.484224           2
 stufak                                  0.305186           2
 forloc                                  0.241802           1
 overl1                                  0.240448       14656
 inisym                                  0.217739           1
 phaser                                  0.213800          66
 pw_charge                               0.194273         328
 racc0                                   0.175872         188
 rspher_all                              0.156340          14
 depsum                                  0.151425           1
 rpro1                                   0.132192         148
 fordep                                  0.117924           1
 choleski                                0.092900           4
 fewald                                  0.081556           5
 augmentation_charge                     0.079211           1
 chggra                                  0.046033           1
 strkin                                  0.028288           1
 strelo                                  0.023881           1
 truncate_high_frequency_w1              0.018039       18936
 strehar                                 0.013108           1
 pothar                                  0.009094           3
 posmap                                  0.009013           2
 fft_gq                                  0.007637           1
 rsp                                     0.004518           5
 rcp                                     0.000507           5
 crpa_reader                             0.000248           1
 vectorpot                               0.000031           2
 set_rsgf_all                            0.000022           3
 rotate_active_occupied_orbital          0.000018           1
 set_dd_magatom                          0.000013           3
 potlok_metagga                          0.000012           2
 redis_pw_over_bands                     0.000001           1
 ---------------------------------------------------------------
 
Profiling took   2.640065  1.355978  0.009058  0.008496 seconds
Profiling took   2.551149 seconds
