 vasp.6.3.2 27Jun22 (build Jan 03 2024 23:25:20) gamma-only                     
  
 executed on           IFC15_impi date 2024.07.28  11:32:38
 running  192 mpi-ranks, with    1 threads/rank
 distrk:  each k-point on  192 cores,    1 groups
 distr:  one band on NCORE=   4 cores,   48 groups


--------------------------------------------------------------------------------------------------------


 INCAR:
   ENCUT = 600.00
   EDIFF = 1.00e-06
   EDIFFG = -0.01
   IBRION = 2
   ALGO = Normal
   ISMEAR = 0
   SIGMA = 0.05
   LCHARG = .FALSE.
   LWAVE = .FALSE.
   LREAL = Auto
   NELM = 2000
   NSW = 5000
   NCORE = 4
   ISPIN = 2
   GGA = MK
   PARAM1 = 0.1234
   PARAM2 = 1.0
   AGGAC = 0.0
   LUSE_VDW = .TRUE.
   LASPH = .TRUE.

 POTCAR:    PAW_PBE C 08Apr2002                   
 POTCAR:    PAW_PBE F 08Apr2002                   
 POTCAR:    PAW_PBE H 15Jun2001                   
 -----------------------------------------------------------------------------
|                                                                             |
|           W    W    AA    RRRRR   N    N  II  N    N   GGGG   !!!           |
|           W    W   A  A   R    R  NN   N  II  NN   N  G    G  !!!           |
|           W    W  A    A  R    R  N N  N  II  N N  N  G       !!!           |
|           W WW W  AAAAAA  RRRRR   N  N N  II  N  N N  G  GGG   !            |
|           WW  WW  A    A  R   R   N   NN  II  N   NN  G    G                |
|           W    W  A    A  R    R  N    N  II  N    N   GGGG   !!!           |
|                                                                             |
|     You use a magnetic or noncollinear calculation, but did not specify     |
|     the initial magnetic moment with the MAGMOM tag. Note that a            |
|     default of 1 will be used for all atoms. This ferromagnetic setup       |
|     may break the symmetry of the crystal, in particular it may rule        |
|     out finding an antiferromagnetic solution. Thence, we recommend         |
|     setting the initial magnetic moment manually or verifying carefully     |
|     that this magnetic setup is desired.                                    |
|                                                                             |
 -----------------------------------------------------------------------------

 -----------------------------------------------------------------------------
|                                                                             |
|               ----> ADVICE to this user running VASP <----                  |
|                                                                             |
|     You have switched on vdW-DFT.                                           |
|     This routine was written and supplied by Jiri Klimes. We recommend      |
|     that you carefully read and cite the following publications:            |
|       J. Klimes, D.R. Bowler, A. Michelides                                 |
|          J. Phys.: Cond Matt. 22 022201 (2010)                              |
|       J. Klimes, D.R. Bowler, A. Michelides                                 |
|          Phys. Rev. B. 83, 195131 (2011)                                    |
|     and references therein.                                                 |
|                                                                             |
 -----------------------------------------------------------------------------

 POTCAR:    PAW_PBE C 08Apr2002                   
   SHA256 =  253f7b50bb8d59471dbedb8285d89021f4a42ed1a2c5d38a03a736e69125dd95 C/POTCAR              
   COPYR  = (c) Copyright 08Apr2002 Georg Kresse                                                    
   COPYR  = This file is part of the software VASP. Any use, copying, and all other rights are regul
   COPYR  = If you do not have a valid VASP license, you may not use, copy or distribute this file. 
   VRHFIN =C: s2p2                                                                                  
   LEXCH  = PE                                                                                      
   EATOM  =   147.1560 eV,   10.8157 Ry                                                             
                                                                                                    
   TITEL  = PAW_PBE C 08Apr2002                                                                     
   LULTRA =        F    use ultrasoft PP ?                                                          
   IUNSCR =        1    unscreen: 0-lin 1-nonlin 2-no                                               
   RPACOR =    1.200    partial core radius                                                         
   POMASS =   12.011; ZVAL   =    4.000    mass and valenz                                          
   RCORE  =    1.500    outmost cutoff radius                                                       
   RWIGS  =    1.630; RWIGS  =    0.863    wigner-seitz radius (au A)                               
   ENMAX  =  400.000; ENMIN  =  300.000 eV                                                          
   ICORE  =        2    local potential                                                             
   LCOR   =        T    correct aug charges                                                         
   LPAW   =        T    paw PP                                                                      
   EAUG   =  644.873                                                                                
   DEXC   =    0.000                                                                                
   RMAX   =    1.529    core radius for proj-oper                                                   
   RAUG   =    1.300    factor for augmentation sphere                                              
   RDEP   =    1.501    radius for radial grids                                                     
   RDEPT  =    1.300    core radius for aug-charge                                                  
                                                                                                    
   Atomic configuration                                                                             
    4 entries                                                                                       
     n  l   j            E        occ.                                                              
     1  0  0.50      -273.3789   2.0000                                                             
     2  0  0.50       -13.7508   2.0000                                                             
     2  1  0.50        -5.2854   2.0000                                                             
     3  2  1.50        -5.4423   0.0000                                                             
   Description                                                                                      
     l       E           TYP  RCUT    TYP  RCUT                                                     
     0    -13.7508458     23  1.200                                                                 
     0     -8.2022199     23  1.200                                                                 
     1     -5.2854383     23  1.500                                                                 
     1     34.0145650     23  1.500                                                                 
     2     -5.4423304      7  1.500                                                                 
  local pseudopotential read in
  partial core-charges read in
  partial kinetic energy density read in
  atomic valenz-charges read in
  non local Contribution for L=           0  read in
    real space projection operators read in
  non local Contribution for L=           0  read in
    real space projection operators read in
  non local Contribution for L=           1  read in
    real space projection operators read in
  non local Contribution for L=           1  read in
    real space projection operators read in
    PAW grid and wavefunctions read in
 
   number of l-projection  operators is LMAX  =           4
   number of lm-projection operators is LMMAX =           8
 
 POTCAR:    PAW_PBE F 08Apr2002                   
   SHA256 =  53c630871ac675939349fc2b976745ee17808dedc90b5bdde026bc81f0faf456 F/POTCAR              
   COPYR  = (c) Copyright 08Apr2002 Georg Kresse                                                    
   COPYR  = This file is part of the software VASP. Any use, copying, and all other rights are regul
   COPYR  = If you do not have a valid VASP license, you may not use, copy or distribute this file. 
   VRHFIN =F: s2p5                                                                                  
   LEXCH  = PE                                                                                      
   EATOM  =   659.6475 eV,   48.4827 Ry                                                             
                                                                                                    
   TITEL  = PAW_PBE F 08Apr2002                                                                     
   LULTRA =        F    use ultrasoft PP ?                                                          
   IUNSCR =        1    unscreen: 0-lin 1-nonlin 2-no                                               
   RPACOR =    1.200    partial core radius                                                         
   POMASS =   18.998; ZVAL   =    7.000    mass and valenz                                          
   RCORE  =    1.520    outmost cutoff radius                                                       
   RWIGS  =    1.500; RWIGS  =    0.794    wigner-seitz radius (au A)                               
   ENMAX  =  400.000; ENMIN  =  300.000 eV                                                          
   ICORE  =        2    local potential                                                             
   LCOR   =        T    correct aug charges                                                         
   LPAW   =        T    paw PP                                                                      
   EAUG   =  613.614                                                                                
   RMAX   =    1.555    core radius for proj-oper                                                   
   RAUG   =    1.300    factor for augmentation sphere                                              
   RDEP   =    1.539    radius for radial grids                                                     
   RDEPT  =    1.299    core radius for aug-charge                                                  
                                                                                                    
   Atomic configuration                                                                             
    4 entries                                                                                       
     n  l   j            E        occ.                                                              
     1  0  0.50      -663.3661   2.0000                                                             
     2  0  0.50       -29.8995   2.0000                                                             
     2  1  0.50       -11.1114   5.0000                                                             
     3  2  1.50       -10.8847   0.0000                                                             
   Description                                                                                      
     l       E           TYP  RCUT    TYP  RCUT                                                     
     0    -29.8995018     23  1.200                                                                 
     0     -9.5240782     23  1.200                                                                 
     1    -11.1113914     23  1.520                                                                 
     1      1.3605826     23  1.520                                                                 
     2    -10.8846608      7  1.500                                                                 
  local pseudopotential read in
  partial core-charges read in
  partial kinetic energy density read in
  atomic valenz-charges read in
  non local Contribution for L=           0  read in
    real space projection operators read in
  non local Contribution for L=           0  read in
    real space projection operators read in
  non local Contribution for L=           1  read in
    real space projection operators read in
  non local Contribution for L=           1  read in
    real space projection operators read in
    PAW grid and wavefunctions read in
 
   number of l-projection  operators is LMAX  =           4
   number of lm-projection operators is LMMAX =           8
 
 POTCAR:    PAW_PBE H 15Jun2001                   
   SHA256 =  030f79b5d3ab3cf0e668861823c8fb652ff669f3e15e46930bd03bfd63a607b6 H/POTCAR              
   COPYR  = (c) Copyright 15Jun2001 Georg Kresse                                                    
   COPYR  = This file is part of the software VASP. Any use, copying, and all other rights are regul
   COPYR  = If you do not have a valid VASP license, you may not use, copy or distribute this file. 
   VRHFIN =H: ultrasoft test                                                                        
   LEXCH  = PE                                                                                      
   EATOM  =    12.4884 eV,    0.9179 Ry                                                             
                                                                                                    
   TITEL  = PAW_PBE H 15Jun2001                                                                     
   LULTRA =        F    use ultrasoft PP ?                                                          
   IUNSCR =        0    unscreen: 0-lin 1-nonlin 2-no                                               
   RPACOR =    0.000    partial core radius                                                         
   POMASS =    1.000; ZVAL   =    1.000    mass and valenz                                          
   RCORE  =    1.100    outmost cutoff radius                                                       
   RWIGS  =    0.700; RWIGS  =    0.370    wigner-seitz radius (au A)                               
   ENMAX  =  250.000; ENMIN  =  200.000 eV                                                          
   RCLOC  =    0.701    cutoff for local pot                                                        
   LCOR   =        T    correct aug charges                                                         
   LPAW   =        T    paw PP                                                                      
   EAUG   =  400.000                                                                                
   RMAX   =    1.123    core radius for proj-oper                                                   
   RAUG   =    1.200    factor for augmentation sphere                                              
   RDEP   =    1.112    radius for radial grids                                                     
   RDEPT  =    0.926    core radius for aug-charge                                                  
                                                                                                    
   Atomic configuration                                                                             
    2 entries                                                                                       
     n  l   j            E        occ.                                                              
     1  0  0.50        -6.4927   1.0000                                                             
     2  1  0.50        -3.4015   0.0000                                                             
   Description                                                                                      
     l       E           TYP  RCUT    TYP  RCUT                                                     
     0     -6.4927494     23  1.100                                                                 
     0      6.8029130     23  1.100                                                                 
     1     -4.0817478     23  1.100                                                                 
  local pseudopotential read in
  atomic valenz-charges read in
  non local Contribution for L=           0  read in
    real space projection operators read in
  non local Contribution for L=           0  read in
    real space projection operators read in
  non local Contribution for L=           1  read in
    real space projection operators read in
    PAW grid and wavefunctions read in
 
   number of l-projection  operators is LMAX  =           3
   number of lm-projection operators is LMMAX =           5
 
 Optimization of the real space projectors (new method)

 maximal supplied QI-value         = 25.13
 optimisation between [QCUT,QGAM] = [ 12.32, 24.88] = [ 42.47,173.37] Ry 
 Optimized for a Real-space Cutoff    1.06 Angstroem

   l    n(q)    QCUT    max X(q) W(low)/X(q) W(high)/X(q)  e(spline) 
   0      8    12.315   115.676    0.34E-03    0.18E-03    0.23E-06
   0      8    12.315    87.132    0.34E-03    0.18E-03    0.22E-06
   1      7    12.315     4.429    0.45E-03    0.12E-03    0.18E-06
   1      7    12.315     2.733    0.35E-03    0.97E-04    0.15E-06
 Optimization of the real space projectors (new method)

 maximal supplied QI-value         = 24.76
 optimisation between [QCUT,QGAM] = [ 12.38, 25.00] = [ 42.90,175.06] Ry 
 Optimized for a Real-space Cutoff    1.03 Angstroem

   l    n(q)    QCUT    max X(q) W(low)/X(q) W(high)/X(q)  e(spline) 
   0      8    12.378    14.049    0.35E-03    0.80E-04    0.14E-06
   0      8    12.378     8.945    0.50E-03    0.13E-03    0.19E-06
   1      7    12.378     7.086    0.49E-03    0.21E-03    0.21E-06
   1      7    12.378     6.747    0.44E-03    0.20E-03    0.19E-06
 Optimization of the real space projectors (new method)

 maximal supplied QI-value         = 34.20
 optimisation between [QCUT,QGAM] = [ 12.31, 24.97] = [ 42.46,174.58] Ry 
 Optimized for a Real-space Cutoff    1.00 Angstroem

   l    n(q)    QCUT    max X(q) W(low)/X(q) W(high)/X(q)  e(spline) 
   0      7    12.313    19.460    0.14E-03    0.42E-03    0.16E-06
   0      7    12.313    12.209    0.12E-03    0.40E-03    0.16E-06
   1      7    12.313     4.655    0.33E-03    0.59E-03    0.89E-07
 -----------------------------------------------------------------------------
|                                                                             |
|               ----> ADVICE to this user running VASP <----                  |
|                                                                             |
|     You enforced a specific xc type in the INCAR file but a different       |
|     type was found in the POTCAR file.                                      |
|     I HOPE YOU KNOW WHAT YOU ARE DOING!                                     |
|                                                                             |
 -----------------------------------------------------------------------------

  PAW_PBE C 08Apr2002                   :
 energy of atom  1       EATOM= -147.1560
 kinetic energy error for atom=    0.0057 (will be added to EATOM!!)
  PAW_PBE F 08Apr2002                   :
 energy of atom  2       EATOM= -659.6475
 kinetic energy error for atom=    0.0256 (will be added to EATOM!!)
  PAW_PBE H 15Jun2001                   :
 energy of atom  3       EATOM=  -12.4884
 kinetic energy error for atom=    0.0004 (will be added to EATOM!!)
 
 
 POSCAR:  C  F  H
  positions in direct lattice
  velocities in cartesian coordinates
 exchange correlation table for  LEXCH =       43
   RHO(1)=    0.500       N(1)  =     2000
   RHO(2)=  100.500       N(2)  =     4000

 VTST: version 4.1, (05/19/21)

 CHAIN: initializing optimizer
 
 OPT: Using VASP Conjugate-Gradient optimizer
 CHAIN: Read ICHAIN            0
 
 POSCAR:  C  F  H
  positions in direct lattice
  velocities in cartesian coordinates
 


--------------------------------------------------------------------------------------------------------


 ion  position               nearest neighbor table
   1  0.498  0.497  0.453-  12 1.09   6 1.39   2 1.39
   2  0.543  0.585  0.472-  11 1.35   1 1.39   4 1.39
   3  0.456  0.412  0.512-   9 1.35   6 1.39   5 1.40
   4  0.545  0.589  0.510-   7 1.35   2 1.39   5 1.40
   5  0.501  0.502  0.530-   8 1.35   4 1.40   3 1.40
   6  0.455  0.411  0.474-  10 1.35   1 1.39   3 1.39
   7  0.588  0.675  0.528-   4 1.35
   8  0.502  0.505  0.567-   5 1.35
   9  0.414  0.329  0.531-   3 1.35
  10  0.412  0.324  0.456-   6 1.35
  11  0.585  0.670  0.453-   2 1.35
  12  0.497  0.495  0.423-   1 1.09
 
  LATTYP: Found a hexagonal cell.
 ALAT       =    15.8227970706
 C/A-ratio  =     2.3015724012
  
  Lattice vectors:
  
 A1 = (   7.9113985353, -13.7029442220,   0.0000000000)
 A2 = (   7.9113985353,  13.7029442220,   0.0000000000)
 A3 = (   0.0000000000,   0.0000000000,  36.4173130480)


Analysis of symmetry for initial positions (statically):
=====================================================================
 Subroutine PRICEL returns:
 Original cell was already a primitive cell.
 

 Routine SETGRP: Setting up the symmetry group for a 
 hexagonal supercell.


 Subroutine GETGRP returns: Found  2 space group operations
 (whereof  1 operations were pure point group operations)
 out of a pool of 24 trial point group operations.


The static configuration has the point symmetry C_1 .
 The point group associated with its full space group is C_1h.


Analysis of symmetry for dynamics (positions and initial velocities):
=====================================================================
 Subroutine PRICEL returns:
 Original cell was already a primitive cell.
 

 Routine SETGRP: Setting up the symmetry group for a 
 hexagonal supercell.


 Subroutine GETGRP returns: Found  2 space group operations
 (whereof  1 operations were pure point group operations)
 out of a pool of 24 trial point group operations.


The dynamic configuration has the point symmetry C_1 .
 The point group associated with its full space group is C_1h.


Analysis of structural, dynamic, and magnetic symmetry:
=====================================================================
 Subroutine PRICEL returns:
 Original cell was already a primitive cell.
 

 Routine SETGRP: Setting up the symmetry group for a 
 hexagonal supercell.


 Subroutine GETGRP returns: Found  2 space group operations
 (whereof  1 operations were pure point group operations)
 out of a pool of 24 trial point group operations.


The overall configuration has the point symmetry C_1 .
 The point group associated with its full space group is C_1h.


 Subroutine INISYM returns: Found  2 space group operations
 (whereof  1 operations are pure point group operations),
 and found     1 'primitive' translations


----------------------------------------------------------------------------------------

                                     Primitive cell                                     

  volume of cell :    7895.9620

  direct lattice vectors                    reciprocal lattice vectors
     7.911398535-13.702944222  0.000000000     0.063199951 -0.036488509  0.000000000
     7.911398535 13.702944222  0.000000000     0.063199951  0.036488509  0.000000000
     0.000000000  0.000000000 36.417313048     0.000000000  0.000000000  0.027459467

  length of vectors
    15.822797071 15.822797071 36.417313048     0.072977017  0.072977017  0.027459467

  position of ions in fractional coordinates (direct lattice)
     0.498328601  0.496657202  0.453177367
     0.542564534  0.585129067  0.471822738
     0.456234981  0.412469962  0.511876082
     0.544562601  0.589125203  0.510095469
     0.501080164  0.502160328  0.530065922
     0.455486429  0.410972859  0.473578276
     0.587690700  0.675381399  0.527884679
     0.502372465  0.504744930  0.567012946
     0.414441370  0.328882739  0.531385290
     0.411775191  0.323550381  0.456272547
     0.584969294  0.669938588  0.452759953
     0.497282520  0.494565040  0.423264835

  ion indices of the primitive-cell ions
   primitive index   ion index
                 1           1
                 2           2
                 3           3
                 4           4
                 5           5
                 6           6
                 7           7
                 8           8
                 9           9
                10          10
                11          11
                12          12

----------------------------------------------------------------------------------------

 
 
 KPOINTS: K-Points                                

Automatic generation of k-mesh.
 Grid dimensions read from file:
 generate k-points for:    1    1    1

 Generating k-lattice:

  Cartesian coordinates                     Fractional coordinates (reciprocal lattice)
     0.063199951 -0.036488509  0.000000000     1.000000000  0.000000000  0.000000000
     0.063199951  0.036488509  0.000000000    -0.000000000  1.000000000  0.000000000
     0.000000000  0.000000000  0.027459467     0.000000000  0.000000000  1.000000000

  Length of vectors
     0.072977017  0.072977017  0.027459467

  Shift w.r.t. Gamma in fractional coordinates (k-lattice)
     0.000000000  0.000000000  0.000000000

 
 Subroutine IBZKPT returns following result:
 ===========================================
 
 Found      1 irreducible k-points:
 
 Following reciprocal coordinates:
            Coordinates               Weight
  0.000000  0.000000  0.000000      1.000000
 
 Following cartesian coordinates:
            Coordinates               Weight
  0.000000  0.000000  0.000000      1.000000
 


--------------------------------------------------------------------------------------------------------




 Dimension of arrays:
   k-points           NKPTS =      1   k-points in BZ     NKDIM =      1   number of bands    NBANDS=     48
   number of dos      NEDOS =    301   number of ions     NIONS =     12
   non local maximal  LDIM  =      4   non local SUM 2l+1 LMDIM =      8
   total plane-waves  NPLWV = ******
   max r-space proj   IRMAX =   1363   max aug-charges    IRDMAX=   3523
   dimension x,y,z NGX =    96 NGY =   96 NGZ =  224
   dimension x,y,z NGXF=   192 NGYF=  192 NGZF=  448
   support grid    NGXF=   192 NGYF=  192 NGZF=  448
   ions per type =               6   5   1
   NGX,Y,Z   is equivalent  to a cutoff of  10.09, 10.09, 10.23 a.u.
   NGXF,Y,Z  is equivalent  to a cutoff of  20.17, 20.17, 20.45 a.u.

 SYSTEM =  unknown system                          
 POSCAR =   C  F  H                                

 Startparameter for this run:
   NWRITE =      2    write-flag & timer
   PREC   = normal    normal or accurate (medium, high low for compatibility)
   ISTART =      0    job   : 0-new  1-cont  2-samecut
   ICHARG =      2    charge: 1-file 2-atom 10-const
   ISPIN  =      2    spin polarized calculation?
   LNONCOLLINEAR =      F non collinear calculations
   LSORBIT =      F    spin-orbit coupling
   INIWAV =      1    electr: 0-lowe 1-rand  2-diag
   LASPH  =      T    aspherical Exc in radial PAW
 Electronic Relaxation 1
   ENCUT  =  600.0 eV  44.10 Ry    6.64 a.u.  31.60 31.60 72.73*2*pi/ulx,y,z
   ENINI  =  600.0     initial cutoff
   ENAUG  =  644.9 eV  augmentation charge cutoff
   NELM   =   2000;   NELMIN=  2; NELMDL=  0     # of ELM steps 
   EDIFF  = 0.1E-05   stopping-criterion for ELM
   LREAL  =      T    real-space projection
   NLSPLINE    = F    spline interpolate recip. space projectors
   LCOMPAT=      F    compatible to vasp.4.4
   GGA_COMPAT  = T    GGA compatible to vasp.4.4-vasp.4.6
   LMAXPAW     = -100 max onsite density
   LMAXMIX     =    2 max onsite mixed and CHGCAR
   VOSKOWN=      0    Vosko Wilk Nusair interpolation
   ROPT   =   -0.00050  -0.00050  -0.00050
 Ionic relaxation
   EDIFFG = -.1E-01   stopping-criterion for IOM
   NSW    =   5000    number of steps for IOM
   NBLOCK =      1;   KBLOCK =   5000    inner block; outer block 
   IBRION =      2    ionic relax: 0-MD 1-quasi-New 2-CG
   NFREE  =      1    steps in history (QN), initial steepest desc. (CG)
   ISIF   =      2    stress and relaxation
   IWAVPR =     11    prediction:  0-non 1-charg 2-wave 3-comb
   ISYM   =      2    0-nonsym 1-usesym 2-fastsym
   LCORR  =      T    Harris-Foulkes like correction to forces

   POTIM  = 0.5000    time-step for ionic-motion
   TEIN   =    0.0    initial temperature
   TEBEG  =    0.0;   TEEND  =   0.0 temperature during run
   SMASS  =  -3.00    Nose mass-parameter (am)
   estimated Nose-frequenzy (Omega)   =  0.10E-29 period in steps = 0.13E+47 mass=  -0.572E-26a.u.
   SCALEE = 1.0000    scale energy and forces
   NPACO  =    256;   APACO  = 10.0  distance and # of slots for P.C.
   PSTRESS=    0.0 pullay stress

  Mass of Ions in am
   POMASS =  12.01 19.00  1.00
  Ionic Valenz
   ZVAL   =   4.00  7.00  1.00
  Atomic Wigner-Seitz radii
   RWIGS  =  -1.00 -1.00 -1.00
  virtual crystal weights 
   VCA    =   1.00  1.00  1.00
   NELECT =      60.0000    total number of electrons
   NUPDOWN=      -1.0000    fix difference up-down

 DOS related values:
   EMIN   =  10.00;   EMAX   =-10.00  energy-range for DOS
   EFERMI =   0.00
   ISMEAR =     0;   SIGMA  =   0.05  broadening in eV -4-tet -1-fermi 0-gaus

 Electronic relaxation 2 (details)
   IALGO  =     38    algorithm
   LDIAG  =      T    sub-space diagonalisation (order eigenvalues)
   LSUBROT=      F    optimize rotation matrix (better conditioning)
   TURBO    =      0    0=normal 1=particle mesh
   IRESTART =      0    0=no restart 2=restart with 2 vectors
   NREBOOT  =      0    no. of reboots
   NMIN     =      0    reboot dimension
   EREF     =   0.00    reference energy to select bands
   IMIX   =      4    mixing-type and parameters
     AMIX     =   0.40;   BMIX     =  1.00
     AMIX_MAG =   1.60;   BMIX_MAG =  1.00
     AMIN     =   0.10
     WC   =   100.;   INIMIX=   1;  MIXPRE=   1;  MAXMIX= -45

 Intra band minimization:
   WEIMIN = 0.0010     energy-eigenvalue tresh-hold
   EBREAK =  0.52E-08  absolut break condition
   DEPER  =   0.30     relativ break condition  

   TIME   =   0.40     timestep for ELM

  volume/ion in A,a.u.               =     658.00      4440.38
  Fermi-wavevector in a.u.,A,eV,Ry     =   0.321853  0.608213  1.409414  0.103589
  Thomas-Fermi vector in A             =   1.209713
 
 Write flags
   LWAVE        =      F    write WAVECAR
   LDOWNSAMPLE  =      F    k-point downsampling of WAVECAR
   LCHARG       =      F    write CHGCAR
   LVTOT        =      F    write LOCPOT, total local potential
   LVHAR        =      F    write LOCPOT, Hartree potential only
   LELF         =      F    write electronic localiz. function (ELF)
   LORBIT       =      0    0 simple, 1 ext, 2 COOP (PROOUT), +10 PAW based schemes


 Dipole corrections
   LMONO  =      F    monopole corrections only (constant potential shift)
   LDIPOL =      F    correct potential (dipole corrections)
   IDIPOL =      0    1-x, 2-y, 3-z, 4-all directions 
   EPSILON=  1.0000000 bulk dielectric constant

 Exchange correlation treatment:
   GGA     =    MK    GGA type
   LEXCH   =    43    internal setting for exchange type
   LIBXC   =     F    Libxc                    
   VOSKOWN =     0    Vosko Wilk Nusair interpolation
   LHFCALC =     F    Hartree Fock is set to
   LHFONE  =     F    Hartree Fock one center treatment
   AEXX    =    0.0000 exact exchange contribution

 vdW DFT:
   LUSE_VDW   =     T    switch on vdW DFT
   Zab_VDW    =-.8491    correlation parameter
   PARAM1     =0.1234
   PARAM2     =1.0000
   PARAM3     =0.0000
   -- rVV10 --
   BPARAM     = 6.3000
   CPARAM     = 0.0093

 Linear response parameters
   LEPSILON=     F    determine dielectric tensor
   LRPA    =     F    only Hartree local field effects (RPA)
   LNABLA  =     F    use nabla operator in PAW spheres
   LVEL    =     F    velocity operator in full k-point grid
   CSHIFT  =0.1000    complex shift for real part using Kramers Kronig
   OMEGAMAX=  -1.0    maximum frequency
   DEG_THRESHOLD= 0.2000000E-02 threshold for treating states as degnerate
   RTIME   =   -0.100 relaxation time in fs
  (WPLASMAI=    0.000 imaginary part of plasma frequency in eV, 0.658/RTIME)
   DFIELD  = 0.0000000 0.0000000 0.0000000 field for delta impulse in time
 
  Optional k-point grid parameters
   LKPOINTS_OPT  =     F    use optional k-point grid
   KPOINTS_OPT_MODE=     1    mode for optional k-point grid
 
 Orbital magnetization related:
   ORBITALMAG=     F  switch on orbital magnetization
   LCHIMAG   =     F  perturbation theory with respect to B field
   DQ        =  0.001000  dq finite difference perturbation B field
   LLRAUG    =     F  two centre corrections for induced B field



--------------------------------------------------------------------------------------------------------


 conjugate gradient relaxation of ions
 charge density and potential will be updated during run
 spin polarized calculation
 Variant of blocked Davidson
 Davidson routine will perform the subspace rotation
 perform sub-space diagonalisation
    after iterative eigenvector-optimisation
 modified Broyden-mixing scheme, WC =      100.0
 initial mixing is a Kerker type mixing with AMIX =  0.4000 and BMIX =      1.0000
 Hartree-type preconditioning will be used
 using additional bands           18
 real space projection scheme for non local part
 use partial core corrections
 calculate Harris-corrections to forces 
   (improved forces if not selfconsistent)
 use gradient corrections 
 use of overlap-Matrix (Vanderbilt PP)
 Gauss-broadening in eV      SIGMA  =   0.05


--------------------------------------------------------------------------------------------------------


  energy-cutoff  :      600.00
  volume of cell :     7895.96
      direct lattice vectors                 reciprocal lattice vectors
     7.911398535-13.702944222  0.000000000     0.063199951 -0.036488509  0.000000000
     7.911398535 13.702944222  0.000000000     0.063199951  0.036488509  0.000000000
     0.000000000  0.000000000 36.417313048     0.000000000  0.000000000  0.027459467

  length of vectors
    15.822797071 15.822797071 36.417313048     0.072977017  0.072977017  0.027459467


 
 k-points in units of 2pi/SCALE and weight: K-Points                                
   0.00000000  0.00000000  0.00000000       1.000
 
 k-points in reciprocal lattice and weights: K-Points                                
   0.00000000  0.00000000  0.00000000       1.000
 
 position of ions in fractional coordinates (direct lattice) 
   0.49832860  0.49665720  0.45317737
   0.54256453  0.58512907  0.47182274
   0.45623498  0.41246996  0.51187608
   0.54456260  0.58912520  0.51009547
   0.50108016  0.50216033  0.53006592
   0.45548643  0.41097286  0.47357828
   0.58769070  0.67538140  0.52788468
   0.50237246  0.50474493  0.56701295
   0.41444137  0.32888274  0.53138529
   0.41177519  0.32355038  0.45627255
   0.58496929  0.66993859  0.45275995
   0.49728252  0.49456504  0.42326484
 
 position of ions in cartesian coordinates  (Angst):
   7.87172923 -0.02290309 16.50350204
   8.92163350  0.58325943 17.18251635
   6.87267102 -0.59970961 18.64115153
   8.96905603  0.61063884 18.57630638
   7.93703536  0.01480143 19.30357663
   6.85490474 -0.60996698 17.24644833
   9.99266675  1.20162077 19.22414162
   7.96770708  0.03250975 20.64908794
   5.88073326 -1.17240514 19.35162446
   5.81745365 -1.20893964 16.61622016
   9.92807638  1.16432949 16.48830093
   7.84690134 -0.03723748 15.41416801
 


--------------------------------------------------------------------------------------------------------


 use parallel FFT for orbitals z direction half grid
 k-point   1 :   0.0000 0.0000 0.0000  plane waves:  131815

 maximum and minimum number of plane-waves per node :     32957    32949

 maximum number of plane-waves:    131815
 maximum index in each direction: 
   IXMAX=   31   IYMAX=   31   IZMAX=   72
   IXMIN=  -31   IYMIN=  -31   IZMIN=    0


 real space projection operators:
  total allocation   :        884.84 KBytes
  max/ min on nodes  :        226.01        218.45


 parallel 3D FFT for wavefunctions:
    minimum data exchange during FFTs selected (reduces bandwidth)
 parallel 3D FFT for charge:
    minimum data exchange during FFTs selected (reduces bandwidth)


 total amount of memory used by VASP MPI-rank0    94436. kBytes
=======================================================================

   base      :      30000. kBytes
   nonlr-proj:        268. kBytes
   fftplans  :      14145. kBytes
   grid      :      48958. kBytes
   one-center:          9. kBytes
   wavefun   :       1056. kBytes
 
     INWAV:  cpu time      0.0004: real time      0.0005
 Broyden mixing: mesh for mixing (old mesh)
   NGX = 63   NGY = 63   NGZ =145
  (NGX  =192   NGY  =192   NGZ  =448)
  gives a total of 575505 points

 initial charge density was supplied:
 charge density of overlapping atoms calculated
 number of electron      60.0000000 magnetization      12.0000000
 keeping initial charge density in first step


--------------------------------------------------------------------------------------------------------


 Maximum index for non-local projection operator          316
 Maximum index for augmentation-charges            0 (set IRDMAX)


--------------------------------------------------------------------------------------------------------


 First call to EWALD:  gamma=   0.089
 Maximum number of real-space cells 4x 4x 2
 Maximum number of reciprocal cells 2x 2x 5

    FEWALD:  cpu time      0.0071: real time      0.0071


--------------------------------------- Iteration      1(   1)  ---------------------------------------


vdW kernel read from vdw_kernel.bindat
  0.0000  0.2424  0.5071  0.7962  1.1119  1.4567  1.8333  2.2446  2.6937  3.1842
  3.7199  4.3049  4.9438  5.6415  6.4036  7.2358  8.1446  9.1372 10.2212 11.4050
 12.6979 14.1099 15.6519 17.3360 19.1751 21.1837 23.3773 25.7729 28.3892 31.2465
 34.3669 37.7748 41.4965 45.5611 50.0000
 
    POTLOK:  cpu time      4.9596: real time      5.0416
    SETDIJ:  cpu time      1.2768: real time      1.2794
     EDDAV:  cpu time      0.9329: real time      0.9735
       DOS:  cpu time      0.0038: real time      0.0040
    --------------------------------------------
      LOOP:  cpu time      7.1733: real time      7.2986

 eigenvalue-minimisations  :   384
 total energy-change (2. order) : 0.4255229E+03  (-0.1823949E+04)
 number of electron      60.0000000 magnetization      12.0000000
 augmentation part       60.0000000 magnetization      12.0000000

 Free energy of the ion-electron system (eV)
  ---------------------------------------------------
  alpha Z        PSCENC =         1.90811901
  Ewald energy   TEWEN  =      6476.28277498
  -Hartree energ DENC   =     -9895.85913205
  -exchange      EXHF   =         0.00000000
  -V(xc)+E(xc)   XCENC  =       268.38028199
  PAW double counting   =      3351.38579200    -3374.48484985
  entropy T*S    EENTRO =        -0.04250379
  eigenvalues    EBANDS =      -609.17062156
  atomic energy  EATOM  =      4207.12304446
  Solvation  Ediel_sol  =         0.00000000
  ---------------------------------------------------
  free energy    TOTEN  =       425.52290519 eV

  energy without entropy =      425.56540898  energy(sigma->0) =      425.54415709


--------------------------------------------------------------------------------------------------------




--------------------------------------- Iteration      1(   2)  ---------------------------------------


     EDDAV:  cpu time      0.8743: real time      0.8755
       DOS:  cpu time      0.0010: real time      0.0010
    --------------------------------------------
      LOOP:  cpu time      0.8752: real time      0.8764

 eigenvalue-minimisations  :   384
 total energy-change (2. order) :-0.4359829E+03  (-0.4336723E+03)
 number of electron      60.0000000 magnetization      12.0000000
 augmentation part       60.0000000 magnetization      12.0000000

 Free energy of the ion-electron system (eV)
  ---------------------------------------------------
  alpha Z        PSCENC =         1.90811901
  Ewald energy   TEWEN  =      6476.28277498
  -Hartree energ DENC   =     -9895.85913205
  -exchange      EXHF   =         0.00000000
  -V(xc)+E(xc)   XCENC  =       268.38028199
  PAW double counting   =      3351.38579200    -3374.48484985
  entropy T*S    EENTRO =        -0.00000000
  eigenvalues    EBANDS =     -1045.19606960
  atomic energy  EATOM  =      4207.12304446
  Solvation  Ediel_sol  =         0.00000000
  ---------------------------------------------------
  free energy    TOTEN  =       -10.46003906 eV

  energy without entropy =      -10.46003906  energy(sigma->0) =      -10.46003906


--------------------------------------------------------------------------------------------------------




--------------------------------------- Iteration      1(   3)  ---------------------------------------


     EDDAV:  cpu time      0.5201: real time      0.5202
       DOS:  cpu time      0.0009: real time      0.0009
    --------------------------------------------
      LOOP:  cpu time      0.5211: real time      0.5212

 eigenvalue-minimisations  :   240
 total energy-change (2. order) :-0.4694945E+02  (-0.4694945E+02)
 number of electron      60.0000000 magnetization      12.0000000
 augmentation part       60.0000000 magnetization      12.0000000

 Free energy of the ion-electron system (eV)
  ---------------------------------------------------
  alpha Z        PSCENC =         1.90811901
  Ewald energy   TEWEN  =      6476.28277498
  -Hartree energ DENC   =     -9895.85913205
  -exchange      EXHF   =         0.00000000
  -V(xc)+E(xc)   XCENC  =       268.38028199
  PAW double counting   =      3351.38579200    -3374.48484985
  entropy T*S    EENTRO =        -0.00000000
  eigenvalues    EBANDS =     -1092.14551741
  atomic energy  EATOM  =      4207.12304446
  Solvation  Ediel_sol  =         0.00000000
  ---------------------------------------------------
  free energy    TOTEN  =       -57.40948687 eV

  energy without entropy =      -57.40948687  energy(sigma->0) =      -57.40948687


--------------------------------------------------------------------------------------------------------




--------------------------------------- Iteration      1(   4)  ---------------------------------------


     EDDAV:  cpu time      0.6306: real time      0.6315
       DOS:  cpu time      0.0009: real time      0.0009
    --------------------------------------------
      LOOP:  cpu time      0.6315: real time      0.6323

 eigenvalue-minimisations  :   288
 total energy-change (2. order) :-0.8108249E+00  (-0.8108249E+00)
 number of electron      60.0000000 magnetization      12.0000000
 augmentation part       60.0000000 magnetization      12.0000000

 Free energy of the ion-electron system (eV)
  ---------------------------------------------------
  alpha Z        PSCENC =         1.90811901
  Ewald energy   TEWEN  =      6476.28277498
  -Hartree energ DENC   =     -9895.85913205
  -exchange      EXHF   =         0.00000000
  -V(xc)+E(xc)   XCENC  =       268.38028199
  PAW double counting   =      3351.38579200    -3374.48484985
  entropy T*S    EENTRO =        -0.00000000
  eigenvalues    EBANDS =     -1092.95634234
  atomic energy  EATOM  =      4207.12304446
  Solvation  Ediel_sol  =         0.00000000
  ---------------------------------------------------
  free energy    TOTEN  =       -58.22031180 eV

  energy without entropy =      -58.22031180  energy(sigma->0) =      -58.22031180


--------------------------------------------------------------------------------------------------------




--------------------------------------- Iteration      1(   5)  ---------------------------------------


     EDDAV:  cpu time      0.6323: real time      0.6337
       DOS:  cpu time      0.0009: real time      0.0009
    CHARGE:  cpu time      2.3559: real time      2.3581
    MIXING:  cpu time      0.0307: real time      0.0311
    --------------------------------------------
      LOOP:  cpu time      3.0200: real time      3.0239

 eigenvalue-minimisations  :   288
 total energy-change (2. order) :-0.2543742E-01  (-0.2543742E-01)
 number of electron      59.9999976 magnetization      11.4449834
 augmentation part        7.2027911 magnetization      11.5351348

 Broyden mixing:
  rms(total) = 0.25580E+01    rms(broyden)= 0.25575E+01
  rms(prec ) = 0.25722E+01
  weight for this iteration     100.00

 Free energy of the ion-electron system (eV)
  ---------------------------------------------------
  alpha Z        PSCENC =         1.90811901
  Ewald energy   TEWEN  =      6476.28277498
  -Hartree energ DENC   =     -9895.85913205
  -exchange      EXHF   =         0.00000000
  -V(xc)+E(xc)   XCENC  =       268.38028199
  PAW double counting   =      3351.38579200    -3374.48484985
  entropy T*S    EENTRO =        -0.00000000
  eigenvalues    EBANDS =     -1092.98177976
  atomic energy  EATOM  =      4207.12304446
  Solvation  Ediel_sol  =         0.00000000
  ---------------------------------------------------
  free energy    TOTEN  =       -58.24574922 eV

  energy without entropy =      -58.24574922  energy(sigma->0) =      -58.24574922


--------------------------------------------------------------------------------------------------------




--------------------------------------- Iteration      1(   6)  ---------------------------------------


    POTLOK:  cpu time      3.9200: real time      3.9258
    SETDIJ:  cpu time      1.3067: real time      1.3080
     EDDAV:  cpu time      0.7030: real time      0.7042
       DOS:  cpu time      0.0013: real time      0.0014
    CHARGE:  cpu time      2.3927: real time      2.3954
    MIXING:  cpu time      0.0169: real time      0.0250
    --------------------------------------------
      LOOP:  cpu time      8.3406: real time      8.3597

 eigenvalue-minimisations  :   288
 total energy-change (2. order) : 0.3267658E+01  (-0.1503820E+01)
 number of electron      59.9999976 magnetization      10.9428529
 augmentation part        7.0165641 magnetization      10.7990553

 Broyden mixing:
  rms(total) = 0.10658E+01    rms(broyden)= 0.10657E+01
  rms(prec ) = 0.10735E+01
  weight for this iteration     100.00

 eigenvalues of (default mixing * dielectric matrix)
  average eigenvalue GAMMA=   0.8511
  0.8511

 Free energy of the ion-electron system (eV)
  ---------------------------------------------------
  alpha Z        PSCENC =         1.90811901
  Ewald energy   TEWEN  =      6476.28277498
  -Hartree energ DENC   =     -9957.34742330
  -exchange      EXHF   =         0.00000000
  -V(xc)+E(xc)   XCENC  =       273.11247751
  PAW double counting   =      4085.69173499    -4110.14251392
  entropy T*S    EENTRO =        -0.00000000
  eigenvalues    EBANDS =     -1031.60630539
  atomic energy  EATOM  =      4207.12304446
  Solvation  Ediel_sol  =         0.00000000
  ---------------------------------------------------
  free energy    TOTEN  =       -54.97809167 eV

  energy without entropy =      -54.97809167  energy(sigma->0) =      -54.97809167


--------------------------------------------------------------------------------------------------------




--------------------------------------- Iteration      1(   7)  ---------------------------------------


    POTLOK:  cpu time      4.1146: real time      4.1189
    SETDIJ:  cpu time      1.2992: real time      1.3008
     EDDAV:  cpu time      0.7029: real time      0.7038
       DOS:  cpu time      0.0011: real time      0.0012
    CHARGE:  cpu time      2.4351: real time      2.4369
    MIXING:  cpu time      0.0142: real time      0.0159
    --------------------------------------------
      LOOP:  cpu time      8.5673: real time      8.5774

 eigenvalue-minimisations  :   288
 total energy-change (2. order) :-0.2396428E+01  (-0.2315896E+00)
 number of electron      59.9999976 magnetization      10.0439171
 augmentation part        6.9865963 magnetization       9.9952986

 Broyden mixing:
  rms(total) = 0.61144E+00    rms(broyden)= 0.61143E+00
  rms(prec ) = 0.61538E+00
  weight for this iteration     100.00

 eigenvalues of (default mixing * dielectric matrix)
  average eigenvalue GAMMA=   1.2122
  0.8190  1.6055

 Free energy of the ion-electron system (eV)
  ---------------------------------------------------
  alpha Z        PSCENC =         1.90811901
  Ewald energy   TEWEN  =      6476.28277498
  -Hartree energ DENC   =     -9983.35930980
  -exchange      EXHF   =         0.00000000
  -V(xc)+E(xc)   XCENC  =       272.20679508
  PAW double counting   =      4592.73613058    -4617.29468689
  entropy T*S    EENTRO =        -0.00000000
  eigenvalues    EBANDS =     -1006.97738715
  atomic energy  EATOM  =      4207.12304446
  Solvation  Ediel_sol  =         0.00000000
  ---------------------------------------------------
  free energy    TOTEN  =       -57.37451973 eV

  energy without entropy =      -57.37451973  energy(sigma->0) =      -57.37451973


--------------------------------------------------------------------------------------------------------




--------------------------------------- Iteration      1(   8)  ---------------------------------------


    POTLOK:  cpu time      3.9157: real time      3.9205
    SETDIJ:  cpu time      1.3075: real time      1.3083
     EDDAV:  cpu time      0.8552: real time      0.8564
       DOS:  cpu time      0.0113: real time      0.0113
    CHARGE:  cpu time      2.3759: real time      2.3784
    MIXING:  cpu time      0.0145: real time      0.0145
    --------------------------------------------
      LOOP:  cpu time      8.4801: real time      8.4895

 eigenvalue-minimisations  :   384
 total energy-change (2. order) :-0.9111640E+00  (-0.9604538E-01)
 number of electron      59.9999976 magnetization       9.4022983
 augmentation part        6.9522121 magnetization       9.3829190

 Broyden mixing:
  rms(total) = 0.27317E+00    rms(broyden)= 0.27315E+00
  rms(prec ) = 0.27388E+00
  weight for this iteration     100.00

 eigenvalues of (default mixing * dielectric matrix)
  average eigenvalue GAMMA=   1.2550
  2.1132  0.8972  0.7546

 Free energy of the ion-electron system (eV)
  ---------------------------------------------------
  alpha Z        PSCENC =         1.90811901
  Ewald energy   TEWEN  =      6476.28277498
  -Hartree energ DENC   =    -10012.03546428
  -exchange      EXHF   =         0.00000000
  -V(xc)+E(xc)   XCENC  =       272.78592702
  PAW double counting   =      5307.27776655    -5331.81901345
  entropy T*S    EENTRO =        -0.00000000
  eigenvalues    EBANDS =      -979.80883802
  atomic energy  EATOM  =      4207.12304446
  Solvation  Ediel_sol  =         0.00000000
  ---------------------------------------------------
  free energy    TOTEN  =       -58.28568374 eV

  energy without entropy =      -58.28568374  energy(sigma->0) =      -58.28568374


--------------------------------------------------------------------------------------------------------




--------------------------------------- Iteration      1(   9)  ---------------------------------------


    POTLOK:  cpu time      3.9116: real time      3.9156
    SETDIJ:  cpu time      1.2986: real time      1.3002
     EDDAV:  cpu time      0.8527: real time      0.8528
       DOS:  cpu time      0.0033: real time      0.0033
    CHARGE:  cpu time      2.3822: real time      2.3851
    MIXING:  cpu time      0.0158: real time      0.0158
    --------------------------------------------
      LOOP:  cpu time      8.4642: real time      8.4727

 eigenvalue-minimisations  :   384
 total energy-change (2. order) :-0.2634015E+00  (-0.6108728E-02)
 number of electron      59.9999976 magnetization       8.7019923
 augmentation part        6.9467391 magnetization       8.6866711

 Broyden mixing:
  rms(total) = 0.18652E+00    rms(broyden)= 0.18652E+00
  rms(prec ) = 0.18692E+00
  weight for this iteration     100.00

 eigenvalues of (default mixing * dielectric matrix)
  average eigenvalue GAMMA=   1.3137
  2.4360  1.3151  0.8317  0.6719

 Free energy of the ion-electron system (eV)
  ---------------------------------------------------
  alpha Z        PSCENC =         1.90811901
  Ewald energy   TEWEN  =      6476.28277498
  -Hartree energ DENC   =    -10018.23474432
  -exchange      EXHF   =         0.00000000
  -V(xc)+E(xc)   XCENC  =       272.83494292
  PAW double counting   =      5524.84197480    -5549.22408861
  entropy T*S    EENTRO =        -0.00000000
  eigenvalues    EBANDS =      -974.08110848
  atomic energy  EATOM  =      4207.12304446
  Solvation  Ediel_sol  =         0.00000000
  ---------------------------------------------------
  free energy    TOTEN  =       -58.54908525 eV

  energy without entropy =      -58.54908525  energy(sigma->0) =      -58.54908525


--------------------------------------------------------------------------------------------------------




--------------------------------------- Iteration      1(  10)  ---------------------------------------


    POTLOK:  cpu time      3.8990: real time      3.9029
    SETDIJ:  cpu time      1.2999: real time      1.3015
     EDDAV:  cpu time      0.7493: real time      0.7504
       DOS:  cpu time      0.0012: real time      0.0012
    CHARGE:  cpu time      2.3993: real time      2.4012
    MIXING:  cpu time      0.0340: real time      0.0340
    --------------------------------------------
      LOOP:  cpu time      8.3827: real time      8.3912

 eigenvalue-minimisations  :   336
 total energy-change (2. order) :-0.1901946E+00  (-0.1647208E-02)
 number of electron      59.9999976 magnetization       7.8623530
 augmentation part        6.9469366 magnetization       7.8545740

 Broyden mixing:
  rms(total) = 0.14384E+00    rms(broyden)= 0.14384E+00
  rms(prec ) = 0.14404E+00
  weight for this iteration     100.00

 eigenvalues of (default mixing * dielectric matrix)
  average eigenvalue GAMMA=   1.3284
  2.6276  1.6215  0.9005  0.8446  0.6480

 Free energy of the ion-electron system (eV)
  ---------------------------------------------------
  alpha Z        PSCENC =         1.90811901
  Ewald energy   TEWEN  =      6476.28277498
  -Hartree energ DENC   =    -10020.45411167
  -exchange      EXHF   =         0.00000000
  -V(xc)+E(xc)   XCENC  =       272.70922931
  PAW double counting   =      5599.76277246    -5624.00196660
  entropy T*S    EENTRO =        -0.00000000
  eigenvalues    EBANDS =      -972.06914185
  atomic energy  EATOM  =      4207.12304446
  Solvation  Ediel_sol  =         0.00000000
  ---------------------------------------------------
  free energy    TOTEN  =       -58.73927990 eV

  energy without entropy =      -58.73927990  energy(sigma->0) =      -58.73927990


--------------------------------------------------------------------------------------------------------




--------------------------------------- Iteration      1(  11)  ---------------------------------------


    POTLOK:  cpu time      3.8896: real time      3.8941
    SETDIJ:  cpu time      1.3018: real time      1.3027
     EDDAV:  cpu time      0.6272: real time      0.6283
       DOS:  cpu time      0.0012: real time      0.0012
    CHARGE:  cpu time      2.3946: real time      2.3972
    MIXING:  cpu time      0.0187: real time      0.0187
    --------------------------------------------
      LOOP:  cpu time      8.2330: real time      8.2421

 eigenvalue-minimisations  :   288
 total energy-change (2. order) :-0.1223969E+00  (-0.7428871E-03)
 number of electron      59.9999976 magnetization       6.6828874
 augmentation part        6.9496536 magnetization       6.6760704

 Broyden mixing:
  rms(total) = 0.11856E+00    rms(broyden)= 0.11856E+00
  rms(prec ) = 0.11867E+00
  weight for this iteration     100.00

 eigenvalues of (default mixing * dielectric matrix)
  average eigenvalue GAMMA=   1.4139
  2.9907  2.0883  1.2062  0.8326  0.7333  0.6323

 Free energy of the ion-electron system (eV)
  ---------------------------------------------------
  alpha Z        PSCENC =         1.90811901
  Ewald energy   TEWEN  =      6476.28277498
  -Hartree energ DENC   =    -10022.33226496
  -exchange      EXHF   =         0.00000000
  -V(xc)+E(xc)   XCENC  =       272.60153573
  PAW double counting   =      5603.23796544    -5627.40421243
  entropy T*S    EENTRO =        -0.00000000
  eigenvalues    EBANDS =      -970.27863908
  atomic energy  EATOM  =      4207.12304446
  Solvation  Ediel_sol  =         0.00000000
  ---------------------------------------------------
  free energy    TOTEN  =       -58.86167685 eV

  energy without entropy =      -58.86167685  energy(sigma->0) =      -58.86167685


--------------------------------------------------------------------------------------------------------




--------------------------------------- Iteration      1(  12)  ---------------------------------------


    POTLOK:  cpu time      3.9024: real time      3.9061
    SETDIJ:  cpu time      1.3106: real time      1.3114
     EDDAV:  cpu time      0.4377: real time      0.4389
       DOS:  cpu time      0.0035: real time      0.0035
    CHARGE:  cpu time      2.3846: real time      2.3872
    MIXING:  cpu time      0.0195: real time      0.0195
    --------------------------------------------
      LOOP:  cpu time      8.0581: real time      8.0665

 eigenvalue-minimisations  :   192
 total energy-change (2. order) :-0.8704083E-01  (-0.8117243E-03)
 number of electron      59.9999976 magnetization       5.0702614
 augmentation part        6.9499656 magnetization       5.0669221

 Broyden mixing:
  rms(total) = 0.90883E-01    rms(broyden)= 0.90882E-01
  rms(prec ) = 0.90941E-01
  weight for this iteration     100.00

 eigenvalues of (default mixing * dielectric matrix)
  average eigenvalue GAMMA=   1.7272
  4.8962  2.4636  1.5889  0.9926  0.8201  0.7015  0.6272

 Free energy of the ion-electron system (eV)
  ---------------------------------------------------
  alpha Z        PSCENC =         1.90811901
  Ewald energy   TEWEN  =      6476.28277498
  -Hartree energ DENC   =    -10025.09885391
  -exchange      EXHF   =         0.00000000
  -V(xc)+E(xc)   XCENC  =       272.54367941
  PAW double counting   =      5574.39192879    -5598.55539596
  entropy T*S    EENTRO =        -0.00000000
  eigenvalues    EBANDS =      -967.54401446
  atomic energy  EATOM  =      4207.12304446
  Solvation  Ediel_sol  =         0.00000000
  ---------------------------------------------------
  free energy    TOTEN  =       -58.94871768 eV

  energy without entropy =      -58.94871768  energy(sigma->0) =      -58.94871768


--------------------------------------------------------------------------------------------------------




--------------------------------------- Iteration      1(  13)  ---------------------------------------


    POTLOK:  cpu time      3.9028: real time      3.9090
    SETDIJ:  cpu time      1.3056: real time      1.3065
     EDDAV:  cpu time      0.5368: real time      0.5377
       DOS:  cpu time      0.0158: real time      0.0158
    CHARGE:  cpu time      2.3875: real time      2.3900
    MIXING:  cpu time      0.0208: real time      0.0208
    --------------------------------------------
      LOOP:  cpu time      8.1694: real time      8.1799

 eigenvalue-minimisations  :   240
 total energy-change (2. order) :-0.5667799E-01  (-0.1266056E-02)
 number of electron      59.9999976 magnetization       3.9575429
 augmentation part        6.9469716 magnetization       3.9582515

 Broyden mixing:
  rms(total) = 0.64335E-01    rms(broyden)= 0.64334E-01
  rms(prec ) = 0.64386E-01
  weight for this iteration     100.00

 eigenvalues of (default mixing * dielectric matrix)
  average eigenvalue GAMMA=   1.9290
  6.7997  2.5166  1.8146  1.2587  0.9031  0.8246  0.6875  0.6268

 Free energy of the ion-electron system (eV)
  ---------------------------------------------------
  alpha Z        PSCENC =         1.90811901
  Ewald energy   TEWEN  =      6476.28277498
  -Hartree energ DENC   =    -10028.57619797
  -exchange      EXHF   =         0.00000000
  -V(xc)+E(xc)   XCENC  =       272.54332187
  PAW double counting   =      5541.11383318    -5565.32537860
  entropy T*S    EENTRO =        -0.00000000
  eigenvalues    EBANDS =      -964.07491259
  atomic energy  EATOM  =      4207.12304446
  Solvation  Ediel_sol  =         0.00000000
  ---------------------------------------------------
  free energy    TOTEN  =       -59.00539567 eV

  energy without entropy =      -59.00539567  energy(sigma->0) =      -59.00539567


--------------------------------------------------------------------------------------------------------




--------------------------------------- Iteration      1(  14)  ---------------------------------------


    POTLOK:  cpu time      3.9815: real time      3.9855
    SETDIJ:  cpu time      1.3047: real time      1.3063
     EDDAV:  cpu time      0.4527: real time      0.4528
       DOS:  cpu time      0.0014: real time      0.0014
    CHARGE:  cpu time      2.4917: real time      2.4943
    MIXING:  cpu time      0.0221: real time      0.0221
    --------------------------------------------
      LOOP:  cpu time      8.2541: real time      8.2624

 eigenvalue-minimisations  :   192
 total energy-change (2. order) :-0.2120685E-01  (-0.5373380E-03)
 number of electron      59.9999976 magnetization       2.8079182
 augmentation part        6.9464062 magnetization       2.8086461

 Broyden mixing:
  rms(total) = 0.49389E-01    rms(broyden)= 0.49389E-01
  rms(prec ) = 0.49439E-01
  weight for this iteration     100.00

 eigenvalues of (default mixing * dielectric matrix)
  average eigenvalue GAMMA=   2.1543
  8.7378  2.7604  2.3157  1.5558  1.0515  0.8331  0.8331  0.6754  0.6257

 Free energy of the ion-electron system (eV)
  ---------------------------------------------------
  alpha Z        PSCENC =         1.90811901
  Ewald energy   TEWEN  =      6476.28277498
  -Hartree energ DENC   =    -10029.38250119
  -exchange      EXHF   =         0.00000000
  -V(xc)+E(xc)   XCENC  =       272.53534041
  PAW double counting   =      5544.68874143    -5568.91064693
  entropy T*S    EENTRO =        -0.00000000
  eigenvalues    EBANDS =      -963.27147468
  atomic energy  EATOM  =      4207.12304446
  Solvation  Ediel_sol  =         0.00000000
  ---------------------------------------------------
  free energy    TOTEN  =       -59.02660251 eV

  energy without entropy =      -59.02660251  energy(sigma->0) =      -59.02660251


--------------------------------------------------------------------------------------------------------




--------------------------------------- Iteration      1(  15)  ---------------------------------------


    POTLOK:  cpu time      4.0710: real time      4.0762
    SETDIJ:  cpu time      1.3028: real time      1.3036
     EDDAV:  cpu time      0.7517: real time      0.7526
       DOS:  cpu time      0.0013: real time      0.0013
    CHARGE:  cpu time      2.3864: real time      2.3882
    MIXING:  cpu time      0.0324: real time      0.0334
    --------------------------------------------
      LOOP:  cpu time      8.5455: real time      8.5553

 eigenvalue-minimisations  :   336
 total energy-change (2. order) :-0.1564761E-01  (-0.4004894E-03)
 number of electron      59.9999976 magnetization       2.1717157
 augmentation part        6.9466228 magnetization       2.1714663

 Broyden mixing:
  rms(total) = 0.36126E-01    rms(broyden)= 0.36125E-01
  rms(prec ) = 0.36168E-01
  weight for this iteration     100.00

 eigenvalues of (default mixing * dielectric matrix)
  average eigenvalue GAMMA=   2.3015
 10.5015  3.4286  2.4045  1.6745  1.1878  0.9399  0.7935  0.7935  0.6668  0.6246

 Free energy of the ion-electron system (eV)
  ---------------------------------------------------
  alpha Z        PSCENC =         1.90811901
  Ewald energy   TEWEN  =      6476.28277498
  -Hartree energ DENC   =    -10028.78160879
  -exchange      EXHF   =         0.00000000
  -V(xc)+E(xc)   XCENC  =       272.49536624
  PAW double counting   =      5557.33121941    -5581.54376140
  entropy T*S    EENTRO =        -0.00000000
  eigenvalues    EBANDS =      -963.85740403
  atomic energy  EATOM  =      4207.12304446
  Solvation  Ediel_sol  =         0.00000000
  ---------------------------------------------------
  free energy    TOTEN  =       -59.04225013 eV

  energy without entropy =      -59.04225013  energy(sigma->0) =      -59.04225013


--------------------------------------------------------------------------------------------------------




--------------------------------------- Iteration      1(  16)  ---------------------------------------


    POTLOK:  cpu time      3.9489: real time      3.9527
    SETDIJ:  cpu time      1.3077: real time      1.3085
     EDDAV:  cpu time      0.7413: real time      0.7425
       DOS:  cpu time      0.0013: real time      0.0013
    CHARGE:  cpu time      2.3820: real time      2.3846
    MIXING:  cpu time      0.0404: real time      0.0404
    --------------------------------------------
      LOOP:  cpu time      8.4219: real time      8.4303

 eigenvalue-minimisations  :   336
 total energy-change (2. order) :-0.6095507E-02  (-0.9684142E-04)
 number of electron      59.9999976 magnetization       1.4445658
 augmentation part        6.9468211 magnetization       1.4439285

 Broyden mixing:
  rms(total) = 0.29478E-01    rms(broyden)= 0.29478E-01
  rms(prec ) = 0.29509E-01
  weight for this iteration     100.00

 eigenvalues of (default mixing * dielectric matrix)
  average eigenvalue GAMMA=   2.3859
 11.6895  3.9927  2.4270  1.9177  1.4627  1.0394  0.8545  0.8545  0.6244  0.6615
  0.7211

 Free energy of the ion-electron system (eV)
  ---------------------------------------------------
  alpha Z        PSCENC =         1.90811901
  Ewald energy   TEWEN  =      6476.28277498
  -Hartree energ DENC   =    -10028.13456759
  -exchange      EXHF   =         0.00000000
  -V(xc)+E(xc)   XCENC  =       272.47273470
  PAW double counting   =      5562.44543428    -5586.64952832
  entropy T*S    EENTRO =        -0.00000000
  eigenvalues    EBANDS =      -964.49635714
  atomic energy  EATOM  =      4207.12304446
  Solvation  Ediel_sol  =         0.00000000
  ---------------------------------------------------
  free energy    TOTEN  =       -59.04834564 eV

  energy without entropy =      -59.04834564  energy(sigma->0) =      -59.04834564


--------------------------------------------------------------------------------------------------------




--------------------------------------- Iteration      1(  17)  ---------------------------------------


    POTLOK:  cpu time      3.9201: real time      3.9240
    SETDIJ:  cpu time      1.3071: real time      1.3087
     EDDAV:  cpu time      0.8534: real time      0.8546
       DOS:  cpu time      0.0013: real time      0.0013
    CHARGE:  cpu time      2.4023: real time      2.4041
    MIXING:  cpu time      0.0354: real time      0.0354
    --------------------------------------------
      LOOP:  cpu time      8.5193: real time      8.5277

 eigenvalue-minimisations  :   384
 total energy-change (2. order) :-0.5409938E-02  (-0.8882687E-04)
 number of electron      59.9999976 magnetization       0.8608049
 augmentation part        6.9469956 magnetization       0.8605999

 Broyden mixing:
  rms(total) = 0.21377E-01    rms(broyden)= 0.21377E-01
  rms(prec ) = 0.21400E-01
  weight for this iteration     100.00

 eigenvalues of (default mixing * dielectric matrix)
  average eigenvalue GAMMA=   2.5318
 13.0517  4.9397  2.6807  2.3136  1.6344  1.1824  0.9612  0.8255  0.8255  0.6929
  0.6243  0.6498

 Free energy of the ion-electron system (eV)
  ---------------------------------------------------
  alpha Z        PSCENC =         1.90811901
  Ewald energy   TEWEN  =      6476.28277498
  -Hartree energ DENC   =    -10027.39890800
  -exchange      EXHF   =         0.00000000
  -V(xc)+E(xc)   XCENC  =       272.45588273
  PAW double counting   =      5565.38061638    -5589.57826663
  entropy T*S    EENTRO =        -0.00000000
  eigenvalues    EBANDS =      -965.22701849
  atomic energy  EATOM  =      4207.12304446
  Solvation  Ediel_sol  =         0.00000000
  ---------------------------------------------------
  free energy    TOTEN  =       -59.05375557 eV

  energy without entropy =      -59.05375557  energy(sigma->0) =      -59.05375557


--------------------------------------------------------------------------------------------------------




--------------------------------------- Iteration      1(  18)  ---------------------------------------


    POTLOK:  cpu time      3.9092: real time      3.9139
    SETDIJ:  cpu time      1.3085: real time      1.3094
     EDDAV:  cpu time      0.8591: real time      0.8603
       DOS:  cpu time      0.0025: real time      0.0025
    CHARGE:  cpu time      2.3932: real time      2.3960
    MIXING:  cpu time      0.0286: real time      0.0286
    --------------------------------------------
      LOOP:  cpu time      8.5011: real time      8.5107

 eigenvalue-minimisations  :   384
 total energy-change (2. order) : 0.1772074E-03  (-0.6259048E-04)
 number of electron      59.9999976 magnetization       0.4212201
 augmentation part        6.9468451 magnetization       0.4211368

 Broyden mixing:
  rms(total) = 0.14562E-01    rms(broyden)= 0.14561E-01
  rms(prec ) = 0.14588E-01
  weight for this iteration     100.00

 eigenvalues of (default mixing * dielectric matrix)
  average eigenvalue GAMMA=   2.7871
 15.3470  6.6034  3.1976  2.3813  1.7941  1.3903  1.0367  0.9220  0.8083  0.8083
  0.6854  0.6226  0.6352

 Free energy of the ion-electron system (eV)
  ---------------------------------------------------
  alpha Z        PSCENC =         1.90811901
  Ewald energy   TEWEN  =      6476.28277498
  -Hartree energ DENC   =    -10026.95899855
  -exchange      EXHF   =         0.00000000
  -V(xc)+E(xc)   XCENC  =       272.45422901
  PAW double counting   =      5563.90736797    -5588.10845976
  entropy T*S    EENTRO =        -0.00000000
  eigenvalues    EBANDS =      -965.66165549
  atomic energy  EATOM  =      4207.12304446
  Solvation  Ediel_sol  =         0.00000000
  ---------------------------------------------------
  free energy    TOTEN  =       -59.05357837 eV

  energy without entropy =      -59.05357837  energy(sigma->0) =      -59.05357837


--------------------------------------------------------------------------------------------------------




--------------------------------------- Iteration      1(  19)  ---------------------------------------


    POTLOK:  cpu time      3.9047: real time      3.9088
    SETDIJ:  cpu time      1.3095: real time      1.3111
     EDDAV:  cpu time      0.7529: real time      0.7540
       DOS:  cpu time      0.0105: real time      0.0105
    CHARGE:  cpu time      2.3895: real time      2.3913
    MIXING:  cpu time      0.0305: real time      0.0305
    --------------------------------------------
      LOOP:  cpu time      8.3977: real time      8.4063

 eigenvalue-minimisations  :   336
 total energy-change (2. order) : 0.1476478E-02  (-0.4715727E-04)
 number of electron      59.9999976 magnetization       0.2481598
 augmentation part        6.9467703 magnetization       0.2481908

 Broyden mixing:
  rms(total) = 0.94925E-02    rms(broyden)= 0.94918E-02
  rms(prec ) = 0.95201E-02
  weight for this iteration     100.00

 eigenvalues of (default mixing * dielectric matrix)
  average eigenvalue GAMMA=   2.8699
 16.9927  7.4672  3.4019  2.3969  1.9098  1.5034  1.1242  0.9916  0.8538  0.8473
  0.7565  0.6821  0.6201  0.6308

 Free energy of the ion-electron system (eV)
  ---------------------------------------------------
  alpha Z        PSCENC =         1.90811901
  Ewald energy   TEWEN  =      6476.28277498
  -Hartree energ DENC   =    -10026.69035445
  -exchange      EXHF   =         0.00000000
  -V(xc)+E(xc)   XCENC  =       272.45717885
  PAW double counting   =      5559.74519888    -5583.95203213
  entropy T*S    EENTRO =        -0.00000000
  eigenvalues    EBANDS =      -965.92603148
  atomic energy  EATOM  =      4207.12304446
  Solvation  Ediel_sol  =         0.00000000
  ---------------------------------------------------
  free energy    TOTEN  =       -59.05210189 eV

  energy without entropy =      -59.05210189  energy(sigma->0) =      -59.05210189


--------------------------------------------------------------------------------------------------------




--------------------------------------- Iteration      1(  20)  ---------------------------------------


    POTLOK:  cpu time      3.8582: real time      3.8635
    SETDIJ:  cpu time      1.3147: real time      1.3156
     EDDAV:  cpu time      0.4521: real time      0.4531
       DOS:  cpu time      0.0013: real time      0.0014
    CHARGE:  cpu time      2.4035: real time      2.4052
    MIXING:  cpu time      0.0492: real time      0.0492
    --------------------------------------------
      LOOP:  cpu time      8.0790: real time      8.0880

 eigenvalue-minimisations  :   192
 total energy-change (2. order) :-0.3488379E-03  (-0.2391847E-04)
 number of electron      59.9999976 magnetization       0.1064045
 augmentation part        6.9468611 magnetization       0.1064658

 Broyden mixing:
  rms(total) = 0.68244E-02    rms(broyden)= 0.68239E-02
  rms(prec ) = 0.68430E-02
  weight for this iteration     100.00

 eigenvalues of (default mixing * dielectric matrix)
  average eigenvalue GAMMA=   2.9760
 18.5420  8.1824  3.7001  2.4884  2.3357  1.7430  1.3616  1.0486  0.9508  0.8259
  0.8259  0.7120  0.6779  0.6288  0.6166

 Free energy of the ion-electron system (eV)
  ---------------------------------------------------
  alpha Z        PSCENC =         1.90811901
  Ewald energy   TEWEN  =      6476.28277498
  -Hartree energ DENC   =    -10026.60929076
  -exchange      EXHF   =         0.00000000
  -V(xc)+E(xc)   XCENC  =       272.45631799
  PAW double counting   =      5558.67541530    -5582.88215154
  entropy T*S    EENTRO =        -0.00000000
  eigenvalues    EBANDS =      -966.00668016
  atomic energy  EATOM  =      4207.12304446
  Solvation  Ediel_sol  =         0.00000000
  ---------------------------------------------------
  free energy    TOTEN  =       -59.05245073 eV

  energy without entropy =      -59.05245073  energy(sigma->0) =      -59.05245073


--------------------------------------------------------------------------------------------------------




--------------------------------------- Iteration      1(  21)  ---------------------------------------


    POTLOK:  cpu time      3.9535: real time      3.9582
    SETDIJ:  cpu time      1.3107: real time      1.3118
     EDDAV:  cpu time      0.7051: real time      0.7062
       DOS:  cpu time      0.0104: real time      0.0105
    CHARGE:  cpu time      2.4231: real time      2.4255
    MIXING:  cpu time      0.0349: real time      0.0349
    --------------------------------------------
      LOOP:  cpu time      8.4378: real time      8.4470

 eigenvalue-minimisations  :   288
 total energy-change (2. order) : 0.3142198E-03  (-0.1928028E-04)
 number of electron      59.9999976 magnetization       0.0393030
 augmentation part        6.9468304 magnetization       0.0393888

 Broyden mixing:
  rms(total) = 0.39564E-02    rms(broyden)= 0.39556E-02
  rms(prec ) = 0.39756E-02
  weight for this iteration     100.00

 eigenvalues of (default mixing * dielectric matrix)
  average eigenvalue GAMMA=   3.0239
 19.6276  8.7133  4.2066  2.9361  2.3682  1.8016  1.4109  1.0662  1.0662  0.9412
  0.8155  0.8155  0.6922  0.6790  0.6281  0.6151

 Free energy of the ion-electron system (eV)
  ---------------------------------------------------
  alpha Z        PSCENC =         1.90811901
  Ewald energy   TEWEN  =      6476.28277498
  -Hartree energ DENC   =    -10026.61561715
  -exchange      EXHF   =         0.00000000
  -V(xc)+E(xc)   XCENC  =       272.45567254
  PAW double counting   =      5558.65956069    -5582.86580128
  entropy T*S    EENTRO =        -0.00000000
  eigenvalues    EBANDS =      -965.99988975
  atomic energy  EATOM  =      4207.12304446
  Solvation  Ediel_sol  =         0.00000000
  ---------------------------------------------------
  free energy    TOTEN  =       -59.05213651 eV

  energy without entropy =      -59.05213651  energy(sigma->0) =      -59.05213651


--------------------------------------------------------------------------------------------------------




--------------------------------------- Iteration      1(  22)  ---------------------------------------


    POTLOK:  cpu time      3.9876: real time      3.9917
    SETDIJ:  cpu time      1.3083: real time      1.3099
     EDDAV:  cpu time      0.4417: real time      0.4418
       DOS:  cpu time      0.0013: real time      0.0014
    CHARGE:  cpu time      2.3877: real time      2.3902
    MIXING:  cpu time      0.0370: real time      0.0370
    --------------------------------------------
      LOOP:  cpu time      8.1637: real time      8.1720

 eigenvalue-minimisations  :   192
 total energy-change (2. order) : 0.7164111E-03  (-0.1265750E-04)
 number of electron      59.9999976 magnetization       0.0078452
 augmentation part        6.9467959 magnetization       0.0078779

 Broyden mixing:
  rms(total) = 0.19996E-02    rms(broyden)= 0.19988E-02
  rms(prec ) = 0.20109E-02
  weight for this iteration     100.00

 eigenvalues of (default mixing * dielectric matrix)
  average eigenvalue GAMMA=   3.1291
 20.9876  9.5138  5.2349  3.2343  2.3650  1.9565  1.5986  1.3046  1.0694  0.9432
  0.8291  0.8291  0.7501  0.6683  0.6683  0.6141  0.6275

 Free energy of the ion-electron system (eV)
  ---------------------------------------------------
  alpha Z        PSCENC =         1.90811901
  Ewald energy   TEWEN  =      6476.28277498
  -Hartree energ DENC   =    -10026.69473184
  -exchange      EXHF   =         0.00000000
  -V(xc)+E(xc)   XCENC  =       272.45663965
  PAW double counting   =      5559.12377532    -5583.32961643
  entropy T*S    EENTRO =        -0.00000000
  eigenvalues    EBANDS =      -965.92142525
  atomic energy  EATOM  =      4207.12304446
  Solvation  Ediel_sol  =         0.00000000
  ---------------------------------------------------
  free energy    TOTEN  =       -59.05142009 eV

  energy without entropy =      -59.05142009  energy(sigma->0) =      -59.05142009


--------------------------------------------------------------------------------------------------------




--------------------------------------- Iteration      1(  23)  ---------------------------------------


    POTLOK:  cpu time      3.9225: real time      3.9265
    SETDIJ:  cpu time      1.3052: real time      1.3067
     EDDAV:  cpu time      0.8621: real time      0.8632
       DOS:  cpu time      0.0011: real time      0.0011
    CHARGE:  cpu time      2.3863: real time      2.3881
    MIXING:  cpu time      0.0385: real time      0.0385
    --------------------------------------------
      LOOP:  cpu time      8.5157: real time      8.5242

 eigenvalue-minimisations  :   384
 total energy-change (2. order) : 0.5076800E-03  (-0.5454193E-05)
 number of electron      59.9999976 magnetization       0.0037094
 augmentation part        6.9468106 magnetization       0.0037122

 Broyden mixing:
  rms(total) = 0.10239E-02    rms(broyden)= 0.10232E-02
  rms(prec ) = 0.10385E-02
[...]
  249        set_dd_paw                            1.294894                            1   3
  250          set_rsgf_all                          0.000001                          1   4
  251          m_sumb_d                              1.294760                          7   4
  252        strkin                                0.001351                            1   3
  253          m_sumb_d                              0.000785                          1   4
  254        strelo                                0.007806                            1   3
  255          m_sumb_d                              0.000716                          2   4
  256        strnlr                                0.343840                            1   3
  257          rspher_all                            0.022443                          9   4
  258          phaser                                0.000006                          9   4
  259          rpro_isp                              0.316362                          9   4
  260            fftwav_mpi                            0.310863                       18   5
  261              fft3d_mpi                             0.271338                     18   6
  262                fftbrc_mpi                            0.225086                   18   7
  263                  fftbas_plan_mpi                       0.225039                 18   8
  264                    dfftw_execute                         0.112197               54   9
  265                    map_forward                           0.100576               36   9
  266                      map_gather                            0.022322             18  10
  267                      m_alltoallv_z                         0.018691             18  10
  268                      map_scatter                           0.027199             18  10
  269            rpromu                                0.005076                       18   5
  270              rpromu_gemm                           0.001396                    216   6
  271              m_sumb_d                              0.001221                     18   6
  272          m_sumb_d                              0.004546                          1   4
  273        m_sumb_d                              0.027389                            7   3
  274        fft3d_mpi                             0.662154                           82   3
  275          fftbrc_mpi                            0.639711                         82   4
  276            fftbas_plan_mpi                       0.639450                       82   5
  277              dfftw_execute                         0.111156                    246   6
  278              map_forward                           0.271089                     80   6
  279                map_gather                            0.016141                   40   7
  280                m_alltoallv_z                         0.239842                   40   7
  281                map_scatter                           0.014273                   40   7
  282              map_backward                          0.200591                     84   6
  283                map_gather                            0.011719                   42   7
  284                m_alltoallv_z                         0.165245                   42   7
  285                map_scatter                           0.022883                   42   7
  286        forhar                                0.049468                            2   3
  287          m_sumb_d                              0.001809                          2   4
  288        strehar                               0.006625                            1   3
  289          m_sumb_d                              0.000558                          1   4
  290        chggra                                0.026974                            1   3
  291          fft3d_mpi                             0.021001                          3   4
  292            fftbrc_mpi                            0.020145                        3   5
  293              fftbas_plan_mpi                       0.020132                      3   6
  294                dfftw_execute                         0.004242                    9   7
  295                map_backward                          0.004320                    2   7
  296                  map_gather                            0.000260                  1   8
  297                  m_alltoallv_z                         0.003469                  1   8
  298                  map_scatter                           0.000569                  1   8
  299                map_forward                           0.009611                    4   7
  300                  map_gather                            0.000850                  2   8
  301                  m_alltoallv_z                         0.007959                  2   8
  302                  map_scatter                           0.000757                  2   8
  303          m_sumb_d                              0.000105                          2   4
  304          pothar                                0.001211                          1   4
  305            m_sumb_d                              0.000245                        1   5
  306        brmix                                 0.066751                            1   3
  307          m_sumb_d                              0.000535                          6   4
  308          brpre                                 0.000413                          2   4
  309          setg0                                 0.003337                          1   4
  310          broyd                                 0.057100                          1   4
  311            m_sumb_d                              0.003979                       35   5
  312            brget                                 0.013697                      233   5
  313            brsav                                 0.003225                       33   5
  314        m_bcast_d                             0.001189                            2   3
  315      potlok                                3.904235                              1   2
  316        fft3d_mpi                             0.702811                           86   3
  317          fftbrc_mpi                            0.677209                         86   4
  318            fftbas_plan_mpi                       0.676945                       86   5
  319              dfftw_execute                         0.122189                    258   6
  320              map_forward                           0.295379                     88   6
  321                map_gather                            0.016782                   46   7
  322                m_alltoallv_z                         0.259485                   46   7
  323                map_scatter                           0.018274                   46   7
  324              map_backward                          0.202039                     84   6
  325                map_gather                            0.012049                   42   7
  326                m_alltoallv_z                         0.166587                   42   7
  327                map_scatter                           0.022512                   42   7
  328        m_sumb_d                              0.028189                            6   3
  329        pothar                                0.001122                            1   3
  330          m_sumb_d                              0.000182                          1   4
  331        m_bcast_d                             0.011810                            2   3
  332      potlok_metagga                        0.000002                              1   2
  333      set_dd_magatom                        0.000001                              1   2
  334      set_dd_paw                            1.303769                              1   2
  335        set_rsgf_all                          0.000002                            1   3
  336        m_sumb_d                              1.303581                            7   3
  337      m_bcast_d                             0.000202                              2   2
  338      densta                                0.000626                              1   2
  339        m_sumb_d                              0.000558                            7   3
 
 Flat profile
 ============
 
             routine name                   CPU           calls
 ---------------------------------------------------------------
 potlok                                 94.939686          30
 set_charge                             58.143027          29
 m_sumb_d                               50.431163        3953
 total_time                             19.312835           1
 m_alltoallv_z                          16.797795        3755
 dfftw_execute                           8.984636       10911
 lapack                                  3.811086         279
 force_and_stress                        3.170434           1
 fft3d_mpi                               3.084142        3637
 m_alltoall_d                            3.037925        2029
 map_scatter                             2.531659        3755
 fftbas_plan_mpi                         2.331753        3637
 map_gather                              2.071705        3755
 fftwav_mpi                              1.580056         576
 map_forward                             1.117502        3878
 vhamil                                  0.995913         279
 orth1                                   0.918401         773
 soft_charge                             0.761653          29
 m_bcast_d                               0.544364         901
 broyd                                   0.414762          29
 m_bcast_z                               0.383647          98
 eddav                                   0.339800          33
 ggemm                                   0.209099         279
 elmin                                   0.199841           1
 brmix                                   0.198029          29
 redis_pw                                0.187666         907
 brget                                   0.162011        2909
 eccp                                    0.147118          66
 w1_copy                                 0.146947         837
 pw_charge                               0.134557          58
 fftext_mpi                              0.121416         279
 setg0                                   0.100386          31
 brsav                                   0.090907         556
 setdij_                                 0.090781          57
 augmentation_charge                     0.078557          29
 kinhamil                                0.064755         279
 racc0                                   0.057001         279
 forhar                                  0.047659           2
 fft_gq                                  0.047578          29
 inisym                                  0.044519           1
 rpro1                                   0.041828         213
 apply_precond                           0.041083         213
 map_backward                            0.034549        3396
 rspher_all                              0.033590          14
 pothar                                  0.029000          31
 rpro_isp                                0.024995          13
 forloc                                  0.024939           1
 setup_precond                           0.024643          66
 redis_proj                              0.019855        1122
 stufak                                  0.017260           1
 lincom                                  0.013918           2
 fftbrc_mpi                              0.012974        3637
 brpre                                   0.011912          58
 choleski                                0.010662           2
 overl                                   0.009500         494
 strelo                                  0.007090           1
 set_dd_paw                              0.006934          31
 strehar                                 0.006067           1
 overl1                                  0.005147         279
 fewald                                  0.005035           1
 rpromu_gemm                             0.004844         312
 chggra                                  0.004657           1
 hamiltmu                                0.004633         279
 newband                                 0.004392         345
 rpromu                                  0.003630          26
 densta                                  0.003108          34
 raccmu_                                 0.002935         279
 brgrid                                  0.001933           1
 rsp                                     0.001076           1
 orthch                                  0.001051           1
 w1_projall                              0.001034         213
 depsum                                  0.000775          29
 strkin                                  0.000566           1
 strnlr                                  0.000483           1
 truncate_high_frequency_w1              0.000371         345
 fornlr                                  0.000237           1
 crpa_reader                             0.000236           1
 rcp                                     0.000168           1
 fordep                                  0.000130           1
 set_rsgf_all                            0.000075          31
 phaser                                  0.000054          79
 potlok_metagga                          0.000046          30
 vectorpot                               0.000046          30
 set_dd_magatom                          0.000039          31
 posmap                                  0.000028           2
 rotate_active_occupied_orbital          0.000025           1
 proall                                  0.000023           1
 redis_pw_over_bands                     0.000001           1
 ---------------------------------------------------------------
  summed up times    278.250347137451     
 
 Accumulative profile
 ====================
 
             routine name                   CPU           calls
 ---------------------------------------------------------------
 total_time                            278.250347           1
 elmin                                 244.795064           1
 potlok                                118.969943          30
 set_charge                             69.617648          29
 m_sumb_d                               50.431163        3953
 set_dd_paw                             40.386213          31
 fft3d_mpi                              36.966714        3637
 fftbrc_mpi                             33.882572        3637
 fftbas_plan_mpi                        33.869598        3637
 eddav                                  23.276180          33
 m_alltoallv_z                          16.797795        3755
 map_forward                            14.205643        3878
 fftwav_mpi                             10.241113         576
 dfftw_execute                           8.984636       10911
 map_backward                            8.347567        3396
 force_and_stress                        8.291332           1
 hamiltmu                                4.618977         279
 soft_charge                             4.492864          29
 lapack                                  3.811086         279
 kinhamil                                3.521806         279
 fftext_mpi                              3.457052         279
 m_alltoall_d                            3.037925        2029
 map_scatter                             2.531659        3755
 redis_pw                                2.448986         907
 map_gather                              2.071705        3755
 newband                                 1.614799         345
 brmix                                   1.112351          29
 vhamil                                  0.995913         279
 orth1                                   0.918401         773
 augmentation_charge                     0.801214          29
 redis_proj                              0.796461        1122
 broyd                                   0.781150          29
 fft_gq                                  0.662210          29
 m_bcast_d                               0.544364         901
 rpro_isp                                0.521170          13
 m_bcast_z                               0.383647          98
 strnlr                                  0.343840           1
 ggemm                                   0.209099         279
 brget                                   0.162011        2909
 setdij_                                 0.159532          57
 eccp                                    0.153358          66
 fornlr                                  0.150454           1
 w1_copy                                 0.146947         837
 pw_charge                               0.134557          58
 setg0                                   0.100386          31
 raccmu_                                 0.096625         279
 brsav                                   0.090907         556
 racc0                                   0.088542         279
 orthch                                  0.079324           1
 w1_projall                              0.066204         213
 proall                                  0.065600           1
 rpro1                                   0.065169         213
 depsum                                  0.059769          29
 forhar                                  0.049468           2
 inisym                                  0.044547           1
 apply_precond                           0.041083         213
 pothar                                  0.040112          31
 densta                                  0.036951          34
 rspher_all                              0.033590          14
 setup_precond                           0.027631          66
 chggra                                  0.026974           1
 forloc                                  0.025317           1
 stufak                                  0.017260           1
 fordep                                  0.015769           1
 lincom                                  0.013918           2
 brpre                                   0.011912          58
 rpromu                                  0.010837          26
 choleski                                0.010662           2
 overl                                   0.009500         494
 strelo                                  0.007806           1
 fewald                                  0.007084           1
 strehar                                 0.006625           1
 overl1                                  0.005147         279
 rpromu_gemm                             0.004844         312
 brgrid                                  0.001933           1
 strkin                                  0.001351           1
 rsp                                     0.001076           1
 truncate_high_frequency_w1              0.000371         345
 crpa_reader                             0.000236           1
 rcp                                     0.000168           1
 set_rsgf_all                            0.000075          31
 phaser                                  0.000054          79
 potlok_metagga                          0.000046          30
 vectorpot                               0.000046          30
 set_dd_magatom                          0.000039          31
 posmap                                  0.000028           2
 rotate_active_occupied_orbital          0.000025           1
 redis_pw_over_bands                     0.000001           1
 ---------------------------------------------------------------
 
Profiling took   0.090161  0.032761  0.007255  0.006595 seconds
Profiling took   0.109879 seconds
