 vasp.6.3.2 27Jun22 (build Jan 03 2024 23:25:20) gamma-only                     
  
 executed on           IFC15_impi date 2024.07.28  11:31:57
 running   96 mpi-ranks, with    1 threads/rank
 distrk:  each k-point on   96 cores,    1 groups
 distr:  one band on NCORE=   4 cores,   24 groups


--------------------------------------------------------------------------------------------------------


 INCAR:
   ENCUT = 600.00
   EDIFF = 1.00e-06
   EDIFFG = -0.01
   IBRION = 2
   ALGO = Normal
   ISMEAR = 0
   SIGMA = 0.05
   LCHARG = .FALSE.
   LWAVE = .FALSE.
   LREAL = Auto
   NELM = 2000
   NSW = 5000
   NCORE = 4
   ISPIN = 2
   GGA = MK
   PARAM1 = 0.1234
   PARAM2 = 1.0
   AGGAC = 0.0
   LUSE_VDW = .TRUE.
   LASPH = .TRUE.

 POTCAR:    PAW_PBE C 08Apr2002                   
 POTCAR:    PAW_PBE F 08Apr2002                   
 POTCAR:    PAW_PBE H 15Jun2001                   
 POTCAR:    PAW_PBE S 06Sep2000                   
 -----------------------------------------------------------------------------
|                                                                             |
|           W    W    AA    RRRRR   N    N  II  N    N   GGGG   !!!           |
|           W    W   A  A   R    R  NN   N  II  NN   N  G    G  !!!           |
|           W    W  A    A  R    R  N N  N  II  N N  N  G       !!!           |
|           W WW W  AAAAAA  RRRRR   N  N N  II  N  N N  G  GGG   !            |
|           WW  WW  A    A  R   R   N   NN  II  N   NN  G    G                |
|           W    W  A    A  R    R  N    N  II  N    N   GGGG   !!!           |
|                                                                             |
|     You use a magnetic or noncollinear calculation, but did not specify     |
|     the initial magnetic moment with the MAGMOM tag. Note that a            |
|     default of 1 will be used for all atoms. This ferromagnetic setup       |
|     may break the symmetry of the crystal, in particular it may rule        |
|     out finding an antiferromagnetic solution. Thence, we recommend         |
|     setting the initial magnetic moment manually or verifying carefully     |
|     that this magnetic setup is desired.                                    |
|                                                                             |
 -----------------------------------------------------------------------------

 -----------------------------------------------------------------------------
|                                                                             |
|               ----> ADVICE to this user running VASP <----                  |
|                                                                             |
|     You have switched on vdW-DFT.                                           |
|     This routine was written and supplied by Jiri Klimes. We recommend      |
|     that you carefully read and cite the following publications:            |
|       J. Klimes, D.R. Bowler, A. Michelides                                 |
|          J. Phys.: Cond Matt. 22 022201 (2010)                              |
|       J. Klimes, D.R. Bowler, A. Michelides                                 |
|          Phys. Rev. B. 83, 195131 (2011)                                    |
|     and references therein.                                                 |
|                                                                             |
 -----------------------------------------------------------------------------

 POTCAR:    PAW_PBE C 08Apr2002                   
   SHA256 =  253f7b50bb8d59471dbedb8285d89021f4a42ed1a2c5d38a03a736e69125dd95 C/POTCAR              
   COPYR  = (c) Copyright 08Apr2002 Georg Kresse                                                    
   COPYR  = This file is part of the software VASP. Any use, copying, and all other rights are regul
   COPYR  = If you do not have a valid VASP license, you may not use, copy or distribute this file. 
   VRHFIN =C: s2p2                                                                                  
   LEXCH  = PE                                                                                      
   EATOM  =   147.1560 eV,   10.8157 Ry                                                             
                                                                                                    
   TITEL  = PAW_PBE C 08Apr2002                                                                     
   LULTRA =        F    use ultrasoft PP ?                                                          
   IUNSCR =        1    unscreen: 0-lin 1-nonlin 2-no                                               
   RPACOR =    1.200    partial core radius                                                         
   POMASS =   12.011; ZVAL   =    4.000    mass and valenz                                          
   RCORE  =    1.500    outmost cutoff radius                                                       
   RWIGS  =    1.630; RWIGS  =    0.863    wigner-seitz radius (au A)                               
   ENMAX  =  400.000; ENMIN  =  300.000 eV                                                          
   ICORE  =        2    local potential                                                             
   LCOR   =        T    correct aug charges                                                         
   LPAW   =        T    paw PP                                                                      
   EAUG   =  644.873                                                                                
   DEXC   =    0.000                                                                                
   RMAX   =    1.529    core radius for proj-oper                                                   
   RAUG   =    1.300    factor for augmentation sphere                                              
   RDEP   =    1.501    radius for radial grids                                                     
   RDEPT  =    1.300    core radius for aug-charge                                                  
                                                                                                    
   Atomic configuration                                                                             
    4 entries                                                                                       
     n  l   j            E        occ.                                                              
     1  0  0.50      -273.3789   2.0000                                                             
     2  0  0.50       -13.7508   2.0000                                                             
     2  1  0.50        -5.2854   2.0000                                                             
     3  2  1.50        -5.4423   0.0000                                                             
   Description                                                                                      
     l       E           TYP  RCUT    TYP  RCUT                                                     
     0    -13.7508458     23  1.200                                                                 
     0     -8.2022199     23  1.200                                                                 
     1     -5.2854383     23  1.500                                                                 
     1     34.0145650     23  1.500                                                                 
     2     -5.4423304      7  1.500                                                                 
  local pseudopotential read in
  partial core-charges read in
  partial kinetic energy density read in
  atomic valenz-charges read in
  non local Contribution for L=           0  read in
    real space projection operators read in
  non local Contribution for L=           0  read in
    real space projection operators read in
  non local Contribution for L=           1  read in
    real space projection operators read in
  non local Contribution for L=           1  read in
    real space projection operators read in
    PAW grid and wavefunctions read in
 
   number of l-projection  operators is LMAX  =           4
   number of lm-projection operators is LMMAX =           8
 
 POTCAR:    PAW_PBE F 08Apr2002                   
   SHA256 =  53c630871ac675939349fc2b976745ee17808dedc90b5bdde026bc81f0faf456 F/POTCAR              
   COPYR  = (c) Copyright 08Apr2002 Georg Kresse                                                    
   COPYR  = This file is part of the software VASP. Any use, copying, and all other rights are regul
   COPYR  = If you do not have a valid VASP license, you may not use, copy or distribute this file. 
   VRHFIN =F: s2p5                                                                                  
   LEXCH  = PE                                                                                      
   EATOM  =   659.6475 eV,   48.4827 Ry                                                             
                                                                                                    
   TITEL  = PAW_PBE F 08Apr2002                                                                     
   LULTRA =        F    use ultrasoft PP ?                                                          
   IUNSCR =        1    unscreen: 0-lin 1-nonlin 2-no                                               
   RPACOR =    1.200    partial core radius                                                         
   POMASS =   18.998; ZVAL   =    7.000    mass and valenz                                          
   RCORE  =    1.520    outmost cutoff radius                                                       
   RWIGS  =    1.500; RWIGS  =    0.794    wigner-seitz radius (au A)                               
   ENMAX  =  400.000; ENMIN  =  300.000 eV                                                          
   ICORE  =        2    local potential                                                             
   LCOR   =        T    correct aug charges                                                         
   LPAW   =        T    paw PP                                                                      
   EAUG   =  613.614                                                                                
   RMAX   =    1.555    core radius for proj-oper                                                   
   RAUG   =    1.300    factor for augmentation sphere                                              
   RDEP   =    1.539    radius for radial grids                                                     
   RDEPT  =    1.299    core radius for aug-charge                                                  
                                                                                                    
   Atomic configuration                                                                             
    4 entries                                                                                       
     n  l   j            E        occ.                                                              
     1  0  0.50      -663.3661   2.0000                                                             
     2  0  0.50       -29.8995   2.0000                                                             
     2  1  0.50       -11.1114   5.0000                                                             
     3  2  1.50       -10.8847   0.0000                                                             
   Description                                                                                      
     l       E           TYP  RCUT    TYP  RCUT                                                     
     0    -29.8995018     23  1.200                                                                 
     0     -9.5240782     23  1.200                                                                 
     1    -11.1113914     23  1.520                                                                 
     1      1.3605826     23  1.520                                                                 
     2    -10.8846608      7  1.500                                                                 
  local pseudopotential read in
  partial core-charges read in
  partial kinetic energy density read in
  atomic valenz-charges read in
  non local Contribution for L=           0  read in
    real space projection operators read in
  non local Contribution for L=           0  read in
    real space projection operators read in
  non local Contribution for L=           1  read in
    real space projection operators read in
  non local Contribution for L=           1  read in
    real space projection operators read in
    PAW grid and wavefunctions read in
 
   number of l-projection  operators is LMAX  =           4
   number of lm-projection operators is LMMAX =           8
 
 POTCAR:    PAW_PBE H 15Jun2001                   
   SHA256 =  030f79b5d3ab3cf0e668861823c8fb652ff669f3e15e46930bd03bfd63a607b6 H/POTCAR              
   COPYR  = (c) Copyright 15Jun2001 Georg Kresse                                                    
   COPYR  = This file is part of the software VASP. Any use, copying, and all other rights are regul
   COPYR  = If you do not have a valid VASP license, you may not use, copy or distribute this file. 
   VRHFIN =H: ultrasoft test                                                                        
   LEXCH  = PE                                                                                      
   EATOM  =    12.4884 eV,    0.9179 Ry                                                             
                                                                                                    
   TITEL  = PAW_PBE H 15Jun2001                                                                     
   LULTRA =        F    use ultrasoft PP ?                                                          
   IUNSCR =        0    unscreen: 0-lin 1-nonlin 2-no                                               
   RPACOR =    0.000    partial core radius                                                         
   POMASS =    1.000; ZVAL   =    1.000    mass and valenz                                          
   RCORE  =    1.100    outmost cutoff radius                                                       
   RWIGS  =    0.700; RWIGS  =    0.370    wigner-seitz radius (au A)                               
   ENMAX  =  250.000; ENMIN  =  200.000 eV                                                          
   RCLOC  =    0.701    cutoff for local pot                                                        
   LCOR   =        T    correct aug charges                                                         
   LPAW   =        T    paw PP                                                                      
   EAUG   =  400.000                                                                                
   RMAX   =    1.123    core radius for proj-oper                                                   
   RAUG   =    1.200    factor for augmentation sphere                                              
   RDEP   =    1.112    radius for radial grids                                                     
   RDEPT  =    0.926    core radius for aug-charge                                                  
                                                                                                    
   Atomic configuration                                                                             
    2 entries                                                                                       
     n  l   j            E        occ.                                                              
     1  0  0.50        -6.4927   1.0000                                                             
     2  1  0.50        -3.4015   0.0000                                                             
   Description                                                                                      
     l       E           TYP  RCUT    TYP  RCUT                                                     
     0     -6.4927494     23  1.100                                                                 
     0      6.8029130     23  1.100                                                                 
     1     -4.0817478     23  1.100                                                                 
  local pseudopotential read in
  atomic valenz-charges read in
  non local Contribution for L=           0  read in
    real space projection operators read in
  non local Contribution for L=           0  read in
    real space projection operators read in
  non local Contribution for L=           1  read in
    real space projection operators read in
    PAW grid and wavefunctions read in
 
   number of l-projection  operators is LMAX  =           3
   number of lm-projection operators is LMMAX =           5
 
 POTCAR:    PAW_PBE S 06Sep2000                   
   SHA256 =  0fc7481fb0695f01bdc6462160264c5c84044ae9ec85a907d398b887a2bc3132 S/POTCAR              
   COPYR  = (c) Copyright 06Sep2000 Georg Kresse                                                    
   COPYR  = This file is part of the software VASP. Any use, copying, and all other rights are regul
   COPYR  = If you do not have a valid VASP license, you may not use, copy or distribute this file. 
   VRHFIN =S : s2p4                                                                                 
   LEXCH  = PE                                                                                      
   EATOM  =   276.8230 eV,   20.3459 Ry                                                             
                                                                                                    
   TITEL  = PAW_PBE S 06Sep2000                                                                     
   LULTRA =        F    use ultrasoft PP ?                                                          
   IUNSCR =        1    unscreen: 0-lin 1-nonlin 2-no                                               
   RPACOR =    1.500    partial core radius                                                         
   POMASS =   32.066; ZVAL   =    6.000    mass and valenz                                          
   RCORE  =    1.900    outmost cutoff radius                                                       
   RWIGS  =    2.200; RWIGS  =    1.164    wigner-seitz radius (au A)                               
   ENMAX  =  258.689; ENMIN  =  194.016 eV                                                          
   ICORE  =        2    local potential                                                             
   LCOR   =        T    correct aug charges                                                         
   LPAW   =        T    paw PP                                                                      
   EAUG   =  335.092                                                                                
   DEXC   =    0.000                                                                                
   RMAX   =    1.942    core radius for proj-oper                                                   
   RAUG   =    1.300    factor for augmentation sphere                                              
   RDEP   =    1.954    radius for radial grids                                                     
   RDEPT  =    1.744    core radius for aug-charge                                                  
                                                                                                    
   Atomic configuration                                                                             
    6 entries                                                                                       
     n  l   j            E        occ.                                                              
     1  0  0.50     -2405.8406   2.0000                                                             
     2  0  0.50      -211.7007   2.0000                                                             
     2  1  1.50      -156.4958   6.0000                                                             
     3  0  0.50       -17.2562   2.0000                                                             
     3  1  0.50        -7.0085   4.0000                                                             
     3  2  1.50        -6.8029   0.0000                                                             
   Description                                                                                      
     l       E           TYP  RCUT    TYP  RCUT                                                     
     0    -17.2561641     23  1.900                                                                 
     0    -15.8743224     23  1.900                                                                 
     1     -7.0085400     23  1.900                                                                 
     1     -2.7779785     23  1.900                                                                 
     2     -6.8029130     23  1.900                                                                 
  local pseudopotential read in
  partial core-charges read in
  partial kinetic energy density read in
  atomic valenz-charges read in
  non local Contribution for L=           0  read in
    real space projection operators read in
  non local Contribution for L=           0  read in
    real space projection operators read in
  non local Contribution for L=           1  read in
    real space projection operators read in
  non local Contribution for L=           1  read in
    real space projection operators read in
    PAW grid and wavefunctions read in
 
   number of l-projection  operators is LMAX  =           4
   number of lm-projection operators is LMMAX =           8
 
 Optimization of the real space projectors (new method)

 maximal supplied QI-value         = 25.13
 optimisation between [QCUT,QGAM] = [ 12.32, 24.88] = [ 42.47,173.37] Ry 
 Optimized for a Real-space Cutoff    1.06 Angstroem

   l    n(q)    QCUT    max X(q) W(low)/X(q) W(high)/X(q)  e(spline) 
   0      8    12.315   115.676    0.34E-03    0.18E-03    0.23E-06
   0      8    12.315    87.132    0.34E-03    0.18E-03    0.22E-06
   1      7    12.315     4.429    0.45E-03    0.12E-03    0.18E-06
   1      7    12.315     2.733    0.35E-03    0.97E-04    0.15E-06
 Optimization of the real space projectors (new method)

 maximal supplied QI-value         = 24.76
 optimisation between [QCUT,QGAM] = [ 12.38, 25.00] = [ 42.90,175.06] Ry 
 Optimized for a Real-space Cutoff    1.03 Angstroem

   l    n(q)    QCUT    max X(q) W(low)/X(q) W(high)/X(q)  e(spline) 
   0      8    12.378    14.049    0.35E-03    0.80E-04    0.14E-06
   0      8    12.378     8.945    0.50E-03    0.13E-03    0.19E-06
   1      7    12.378     7.086    0.49E-03    0.21E-03    0.21E-06
   1      7    12.378     6.747    0.44E-03    0.20E-03    0.19E-06
 Optimization of the real space projectors (new method)

 maximal supplied QI-value         = 34.20
 optimisation between [QCUT,QGAM] = [ 12.31, 24.97] = [ 42.46,174.58] Ry 
 Optimized for a Real-space Cutoff    1.00 Angstroem

   l    n(q)    QCUT    max X(q) W(low)/X(q) W(high)/X(q)  e(spline) 
   0      7    12.313    19.460    0.14E-03    0.42E-03    0.16E-06
   0      7    12.313    12.209    0.12E-03    0.40E-03    0.16E-06
   1      7    12.313     4.655    0.33E-03    0.59E-03    0.89E-07
 Optimization of the real space projectors (new method)

 maximal supplied QI-value         = 19.84
 optimisation between [QCUT,QGAM] = [ 12.50, 25.00] = [ 43.76,175.03] Ry 
 Optimized for a Real-space Cutoff    1.06 Angstroem

   l    n(q)    QCUT    max X(q) W(low)/X(q) W(high)/X(q)  e(spline) 
   0      8    12.501   187.594    0.26E-03    0.17E-03    0.97E-07
   0      8    12.501   164.243    0.26E-03    0.17E-03    0.96E-07
   1      7    12.501    67.533    0.50E-03    0.61E-03    0.91E-07
   1      7    12.501    50.729    0.48E-03    0.60E-03    0.90E-07
 -----------------------------------------------------------------------------
|                                                                             |
|               ----> ADVICE to this user running VASP <----                  |
|                                                                             |
|     You enforced a specific xc type in the INCAR file but a different       |
|     type was found in the POTCAR file.                                      |
|     I HOPE YOU KNOW WHAT YOU ARE DOING!                                     |
|                                                                             |
 -----------------------------------------------------------------------------

  PAW_PBE C 08Apr2002                   :
 energy of atom  1       EATOM= -147.1560
 kinetic energy error for atom=    0.0057 (will be added to EATOM!!)
  PAW_PBE F 08Apr2002                   :
 energy of atom  2       EATOM= -659.6475
 kinetic energy error for atom=    0.0256 (will be added to EATOM!!)
  PAW_PBE H 15Jun2001                   :
 energy of atom  3       EATOM=  -12.4884
 kinetic energy error for atom=    0.0004 (will be added to EATOM!!)
  PAW_PBE S 06Sep2000                   :
 energy of atom  4       EATOM= -276.8230
 kinetic energy error for atom=    0.0009 (will be added to EATOM!!)
 
 
 POSCAR:  C  F  H  S
  positions in direct lattice
  velocities in cartesian coordinates
 exchange correlation table for  LEXCH =       43
   RHO(1)=    0.500       N(1)  =     2000
   RHO(2)=  100.500       N(2)  =     4000

 VTST: version 4.1, (05/19/21)

 CHAIN: initializing optimizer
 
 OPT: Using VASP Conjugate-Gradient optimizer
 CHAIN: Read ICHAIN            0
 
 POSCAR:  C  F  H  S
  positions in direct lattice
  velocities in cartesian coordinates
 


--------------------------------------------------------------------------------------------------------


 ion  position               nearest neighbor table
   1  0.498  0.496  0.468-   6 1.40   2 1.40  13 1.76
   2  0.542  0.585  0.487-  11 1.35   4 1.39   1 1.40
   3  0.458  0.415  0.528-   9 1.35   6 1.39   5 1.40
   4  0.545  0.591  0.525-   7 1.35   2 1.39   5 1.40
   5  0.503  0.505  0.546-   8 1.35   3 1.40   4 1.40
   6  0.456  0.411  0.490-  10 1.36   3 1.39   1 1.40
   7  0.589  0.678  0.542-   4 1.35
   8  0.505  0.510  0.583-   5 1.35
   9  0.416  0.332  0.548-   3 1.35
  10  0.411  0.322  0.473-   6 1.36
  11  0.584  0.669  0.467-   2 1.35
  12  0.448  0.397  0.417-  13 1.35
  13  0.498  0.495  0.420-  12 1.35   1 1.76
 
  LATTYP: Found a hexagonal cell.
 ALAT       =    15.8227970706
 C/A-ratio  =     2.3015724012
  
  Lattice vectors:
  
 A1 = (   7.9113985353, -13.7029442220,   0.0000000000)
 A2 = (   7.9113985353,  13.7029442220,   0.0000000000)
 A3 = (   0.0000000000,   0.0000000000,  36.4173130480)


Analysis of symmetry for initial positions (statically):
=====================================================================
 Subroutine PRICEL returns:
 Original cell was already a primitive cell.
 

 Routine SETGRP: Setting up the symmetry group for a 
 hexagonal supercell.


 Subroutine GETGRP returns: Found  2 space group operations
 (whereof  1 operations were pure point group operations)
 out of a pool of 24 trial point group operations.


The static configuration has the point symmetry C_1 .
 The point group associated with its full space group is C_1h.


Analysis of symmetry for dynamics (positions and initial velocities):
=====================================================================
 Subroutine PRICEL returns:
 Original cell was already a primitive cell.
 

 Routine SETGRP: Setting up the symmetry group for a 
 hexagonal supercell.


 Subroutine GETGRP returns: Found  2 space group operations
 (whereof  1 operations were pure point group operations)
 out of a pool of 24 trial point group operations.


The dynamic configuration has the point symmetry C_1 .
 The point group associated with its full space group is C_1h.


Analysis of structural, dynamic, and magnetic symmetry:
=====================================================================
 Subroutine PRICEL returns:
 Original cell was already a primitive cell.
 

 Routine SETGRP: Setting up the symmetry group for a 
 hexagonal supercell.


 Subroutine GETGRP returns: Found  2 space group operations
 (whereof  1 operations were pure point group operations)
 out of a pool of 24 trial point group operations.


The overall configuration has the point symmetry C_1 .
 The point group associated with its full space group is C_1h.


 Subroutine INISYM returns: Found  2 space group operations
 (whereof  1 operations are pure point group operations),
 and found     1 'primitive' translations


----------------------------------------------------------------------------------------

                                     Primitive cell                                     

  volume of cell :    7895.9620

  direct lattice vectors                    reciprocal lattice vectors
     7.911398535-13.702944222  0.000000000     0.063199951 -0.036488509  0.000000000
     7.911398535 13.702944222  0.000000000     0.063199951  0.036488509  0.000000000
     0.000000000  0.000000000 36.417313048     0.000000000  0.000000000  0.027459467

  length of vectors
    15.822797071 15.822797071 36.417313048     0.072977017  0.072977017  0.027459467

  position of ions in fractional coordinates (direct lattice)
     0.497800120  0.495600240  0.468101983
     0.542499763  0.584999526  0.486674099
     0.457589972  0.415179944  0.527932199
     0.545418136  0.590836273  0.524832751
     0.502696451  0.505392901  0.545684212
     0.455597180  0.411194359  0.489717081
     0.589210781  0.678421563  0.541665800
     0.504962411  0.509924822  0.582635272
     0.416119120  0.332238240  0.547832873
     0.411113639  0.322227279  0.473343728
     0.584344277  0.668688554  0.466857596
     0.448464831  0.396929661  0.417023989
     0.497594021  0.495188042  0.419901695

  ion indices of the primitive-cell ions
   primitive index   ion index
                 1           1
                 2           2
                 3           3
                 4           4
                 5           5
                 6           6
                 7           7
                 8           8
                 9           9
                10          10
                11          11
                12          12
                13          13

----------------------------------------------------------------------------------------

 
 
 KPOINTS: K-Points                                

Automatic generation of k-mesh.
 Grid dimensions read from file:
 generate k-points for:    1    1    1

 Generating k-lattice:

  Cartesian coordinates                     Fractional coordinates (reciprocal lattice)
     0.063199951 -0.036488509  0.000000000     1.000000000  0.000000000  0.000000000
     0.063199951  0.036488509  0.000000000    -0.000000000  1.000000000  0.000000000
     0.000000000  0.000000000  0.027459467     0.000000000  0.000000000  1.000000000

  Length of vectors
     0.072977017  0.072977017  0.027459467

  Shift w.r.t. Gamma in fractional coordinates (k-lattice)
     0.000000000  0.000000000  0.000000000

 
 Subroutine IBZKPT returns following result:
 ===========================================
 
 Found      1 irreducible k-points:
 
 Following reciprocal coordinates:
            Coordinates               Weight
  0.000000  0.000000  0.000000      1.000000
 
 Following cartesian coordinates:
            Coordinates               Weight
  0.000000  0.000000  0.000000      1.000000
 


--------------------------------------------------------------------------------------------------------




 Dimension of arrays:
   k-points           NKPTS =      1   k-points in BZ     NKDIM =      1   number of bands    NBANDS=     48
   number of dos      NEDOS =    301   number of ions     NIONS =     13
   non local maximal  LDIM  =      4   non local SUM 2l+1 LMDIM =      8
   total plane-waves  NPLWV = ******
   max r-space proj   IRMAX =   1363   max aug-charges    IRDMAX=   8435
   dimension x,y,z NGX =    96 NGY =   96 NGZ =  224
   dimension x,y,z NGXF=   192 NGYF=  192 NGZF=  448
   support grid    NGXF=   192 NGYF=  192 NGZF=  448
   ions per type =               6   5   1   1
   NGX,Y,Z   is equivalent  to a cutoff of  10.09, 10.09, 10.23 a.u.
   NGXF,Y,Z  is equivalent  to a cutoff of  20.17, 20.17, 20.45 a.u.

 SYSTEM =  unknown system                          
 POSCAR =   C  F  H  S                             

 Startparameter for this run:
   NWRITE =      2    write-flag & timer
   PREC   = normal    normal or accurate (medium, high low for compatibility)
   ISTART =      0    job   : 0-new  1-cont  2-samecut
   ICHARG =      2    charge: 1-file 2-atom 10-const
   ISPIN  =      2    spin polarized calculation?
   LNONCOLLINEAR =      F non collinear calculations
   LSORBIT =      F    spin-orbit coupling
   INIWAV =      1    electr: 0-lowe 1-rand  2-diag
   LASPH  =      T    aspherical Exc in radial PAW
 Electronic Relaxation 1
   ENCUT  =  600.0 eV  44.10 Ry    6.64 a.u.  31.60 31.60 72.73*2*pi/ulx,y,z
   ENINI  =  600.0     initial cutoff
   ENAUG  =  644.9 eV  augmentation charge cutoff
   NELM   =   2000;   NELMIN=  2; NELMDL=  0     # of ELM steps 
   EDIFF  = 0.1E-05   stopping-criterion for ELM
   LREAL  =      T    real-space projection
   NLSPLINE    = F    spline interpolate recip. space projectors
   LCOMPAT=      F    compatible to vasp.4.4
   GGA_COMPAT  = T    GGA compatible to vasp.4.4-vasp.4.6
   LMAXPAW     = -100 max onsite density
   LMAXMIX     =    2 max onsite mixed and CHGCAR
   VOSKOWN=      0    Vosko Wilk Nusair interpolation
   ROPT   =   -0.00050  -0.00050  -0.00050  -0.00050
 Ionic relaxation
   EDIFFG = -.1E-01   stopping-criterion for IOM
   NSW    =   5000    number of steps for IOM
   NBLOCK =      1;   KBLOCK =   5000    inner block; outer block 
   IBRION =      2    ionic relax: 0-MD 1-quasi-New 2-CG
   NFREE  =      1    steps in history (QN), initial steepest desc. (CG)
   ISIF   =      2    stress and relaxation
   IWAVPR =     11    prediction:  0-non 1-charg 2-wave 3-comb
   ISYM   =      2    0-nonsym 1-usesym 2-fastsym
   LCORR  =      T    Harris-Foulkes like correction to forces

   POTIM  = 0.5000    time-step for ionic-motion
   TEIN   =    0.0    initial temperature
   TEBEG  =    0.0;   TEEND  =   0.0 temperature during run
   SMASS  =  -3.00    Nose mass-parameter (am)
   estimated Nose-frequenzy (Omega)   =  0.10E-29 period in steps = 0.13E+47 mass=  -0.572E-26a.u.
   SCALEE = 1.0000    scale energy and forces
   NPACO  =    256;   APACO  = 10.0  distance and # of slots for P.C.
   PSTRESS=    0.0 pullay stress

  Mass of Ions in am
   POMASS =  12.01 19.00  1.00 32.07
  Ionic Valenz
   ZVAL   =   4.00  7.00  1.00  6.00
  Atomic Wigner-Seitz radii
   RWIGS  =  -1.00 -1.00 -1.00 -1.00
  virtual crystal weights 
   VCA    =   1.00  1.00  1.00  1.00
   NELECT =      66.0000    total number of electrons
   NUPDOWN=      -1.0000    fix difference up-down

 DOS related values:
   EMIN   =  10.00;   EMAX   =-10.00  energy-range for DOS
   EFERMI =   0.00
   ISMEAR =     0;   SIGMA  =   0.05  broadening in eV -4-tet -1-fermi 0-gaus

 Electronic relaxation 2 (details)
   IALGO  =     38    algorithm
   LDIAG  =      T    sub-space diagonalisation (order eigenvalues)
   LSUBROT=      F    optimize rotation matrix (better conditioning)
   TURBO    =      0    0=normal 1=particle mesh
   IRESTART =      0    0=no restart 2=restart with 2 vectors
   NREBOOT  =      0    no. of reboots
   NMIN     =      0    reboot dimension
   EREF     =   0.00    reference energy to select bands
   IMIX   =      4    mixing-type and parameters
     AMIX     =   0.40;   BMIX     =  1.00
     AMIX_MAG =   1.60;   BMIX_MAG =  1.00
     AMIN     =   0.10
     WC   =   100.;   INIMIX=   1;  MIXPRE=   1;  MAXMIX= -45

 Intra band minimization:
   WEIMIN = 0.0010     energy-eigenvalue tresh-hold
   EBREAK =  0.52E-08  absolut break condition
   DEPER  =   0.30     relativ break condition  

   TIME   =   0.40     timestep for ELM

  volume/ion in A,a.u.               =     607.38      4098.81
  Fermi-wavevector in a.u.,A,eV,Ry     =   0.332242  0.627846  1.501875  0.110385
  Thomas-Fermi vector in A             =   1.229083
 
 Write flags
   LWAVE        =      F    write WAVECAR
   LDOWNSAMPLE  =      F    k-point downsampling of WAVECAR
   LCHARG       =      F    write CHGCAR
   LVTOT        =      F    write LOCPOT, total local potential
   LVHAR        =      F    write LOCPOT, Hartree potential only
   LELF         =      F    write electronic localiz. function (ELF)
   LORBIT       =      0    0 simple, 1 ext, 2 COOP (PROOUT), +10 PAW based schemes


 Dipole corrections
   LMONO  =      F    monopole corrections only (constant potential shift)
   LDIPOL =      F    correct potential (dipole corrections)
   IDIPOL =      0    1-x, 2-y, 3-z, 4-all directions 
   EPSILON=  1.0000000 bulk dielectric constant

 Exchange correlation treatment:
   GGA     =    MK    GGA type
   LEXCH   =    43    internal setting for exchange type
   LIBXC   =     F    Libxc                    
   VOSKOWN =     0    Vosko Wilk Nusair interpolation
   LHFCALC =     F    Hartree Fock is set to
   LHFONE  =     F    Hartree Fock one center treatment
   AEXX    =    0.0000 exact exchange contribution

 vdW DFT:
   LUSE_VDW   =     T    switch on vdW DFT
   Zab_VDW    =-.8491    correlation parameter
   PARAM1     =0.1234
   PARAM2     =1.0000
   PARAM3     =0.0000
   -- rVV10 --
   BPARAM     = 6.3000
   CPARAM     = 0.0093

 Linear response parameters
   LEPSILON=     F    determine dielectric tensor
   LRPA    =     F    only Hartree local field effects (RPA)
   LNABLA  =     F    use nabla operator in PAW spheres
   LVEL    =     F    velocity operator in full k-point grid
   CSHIFT  =0.1000    complex shift for real part using Kramers Kronig
   OMEGAMAX=  -1.0    maximum frequency
   DEG_THRESHOLD= 0.2000000E-02 threshold for treating states as degnerate
   RTIME   =   -0.100 relaxation time in fs
  (WPLASMAI=    0.000 imaginary part of plasma frequency in eV, 0.658/RTIME)
   DFIELD  = 0.0000000 0.0000000 0.0000000 field for delta impulse in time
 
  Optional k-point grid parameters
   LKPOINTS_OPT  =     F    use optional k-point grid
   KPOINTS_OPT_MODE=     1    mode for optional k-point grid
 
 Orbital magnetization related:
   ORBITALMAG=     F  switch on orbital magnetization
   LCHIMAG   =     F  perturbation theory with respect to B field
   DQ        =  0.001000  dq finite difference perturbation B field
   LLRAUG    =     F  two centre corrections for induced B field



--------------------------------------------------------------------------------------------------------


 conjugate gradient relaxation of ions
 charge density and potential will be updated during run
 spin polarized calculation
 Variant of blocked Davidson
 Davidson routine will perform the subspace rotation
 perform sub-space diagonalisation
    after iterative eigenvector-optimisation
 modified Broyden-mixing scheme, WC =      100.0
 initial mixing is a Kerker type mixing with AMIX =  0.4000 and BMIX =      1.0000
 Hartree-type preconditioning will be used
 using additional bands           15
 real space projection scheme for non local part
 use partial core corrections
 calculate Harris-corrections to forces 
   (improved forces if not selfconsistent)
 use gradient corrections 
 use of overlap-Matrix (Vanderbilt PP)
 Gauss-broadening in eV      SIGMA  =   0.05


--------------------------------------------------------------------------------------------------------


  energy-cutoff  :      600.00
  volume of cell :     7895.96
      direct lattice vectors                 reciprocal lattice vectors
     7.911398535-13.702944222  0.000000000     0.063199951 -0.036488509  0.000000000
     7.911398535 13.702944222  0.000000000     0.063199951  0.036488509  0.000000000
     0.000000000  0.000000000 36.417313048     0.000000000  0.000000000  0.027459467

  length of vectors
    15.822797071 15.822797071 36.417313048     0.072977017  0.072977017  0.027459467


 
 k-points in units of 2pi/SCALE and weight: K-Points                                
   0.00000000  0.00000000  0.00000000       1.000
 
 k-points in reciprocal lattice and weights: K-Points                                
   0.00000000  0.00000000  0.00000000       1.000
 
 position of ions in fractional coordinates (direct lattice) 
   0.49780012  0.49560024  0.46810198
   0.54249976  0.58499953  0.48667410
   0.45758997  0.41517994  0.52793220
   0.54541814  0.59083627  0.52483275
   0.50269645  0.50539290  0.54568421
   0.45559718  0.41119436  0.48971708
   0.58921078  0.67842156  0.54166580
   0.50496241  0.50992482  0.58263527
   0.41611912  0.33223824  0.54783287
   0.41111364  0.32222728  0.47334373
   0.58434428  0.66868855  0.46685760
   0.44846483  0.39692966  0.41702399
   0.49759402  0.49518804  0.41990170
 
 position of ions in cartesian coordinates  (Angst):
   7.85918615 -0.03014483 17.04701646
   8.92009623  0.58237188 17.72336303
   6.90483063 -0.58114225 19.22587215
   8.98936147  0.62236219 19.11299860
   7.97539662  0.03694931 19.87235277
   6.85753331 -0.60844937 17.83418024
  10.02874467  1.22245036 19.72601301
   8.02917737  0.06799964 21.21801109
   5.92055333 -1.14941502 19.95060124
   5.80175226 -1.21800484 17.23790671
   9.91324210  1.15576492 17.00169922
   6.68825274 -0.70618355 15.18689315
   7.85429456 -0.03296899 15.29169149
 


--------------------------------------------------------------------------------------------------------


 use parallel FFT for orbitals z direction half grid
 k-point   1 :   0.0000 0.0000 0.0000  plane waves:  131815

 maximum and minimum number of plane-waves per node :     32957    32949

 maximum number of plane-waves:    131815
 maximum index in each direction: 
   IXMAX=   31   IYMAX=   31   IZMAX=   72
   IXMIN=  -31   IYMIN=  -31   IZMIN=    0


 real space projection operators:
  total allocation   :        961.80 KBytes
  max/ min on nodes  :        245.20        236.80


 parallel 3D FFT for wavefunctions:
    minimum data exchange during FFTs selected (reduces bandwidth)
 parallel 3D FFT for charge:
    minimum data exchange during FFTs selected (reduces bandwidth)


 total amount of memory used by VASP MPI-rank0   107230. kBytes
=======================================================================

   base      :      30000. kBytes
   nonlr-proj:        290. kBytes
   fftplans  :      16881. kBytes
   grid      :      57937. kBytes
   one-center:         12. kBytes
   wavefun   :       2110. kBytes
 
     INWAV:  cpu time      0.0006: real time      0.0010
 Broyden mixing: mesh for mixing (old mesh)
   NGX = 63   NGY = 63   NGZ =145
  (NGX  =192   NGY  =192   NGZ  =448)
  gives a total of 575505 points

 initial charge density was supplied:
 charge density of overlapping atoms calculated
 number of electron      66.0000000 magnetization      13.0000000
 keeping initial charge density in first step


--------------------------------------------------------------------------------------------------------


 Maximum index for non-local projection operator          319
 Maximum index for augmentation-charges          440 (set IRDMAX)


--------------------------------------------------------------------------------------------------------


 First call to EWALD:  gamma=   0.089
 Maximum number of real-space cells 4x 4x 2
 Maximum number of reciprocal cells 2x 2x 5

    FEWALD:  cpu time      0.0071: real time      0.0071


--------------------------------------- Iteration      1(   1)  ---------------------------------------


vdW kernel read from vdw_kernel.bindat
  0.0000  0.2424  0.5071  0.7962  1.1119  1.4567  1.8333  2.2446  2.6937  3.1842
  3.7199  4.3049  4.9438  5.6415  6.4036  7.2358  8.1446  9.1372 10.2212 11.4050
 12.6979 14.1099 15.6519 17.3360 19.1751 21.1837 23.3773 25.7729 28.3892 31.2465
 34.3669 37.7748 41.4965 45.5611 50.0000
 
    POTLOK:  cpu time      9.4858: real time      9.6037
    SETDIJ:  cpu time      1.3499: real time      1.3515
     EDDAV:  cpu time      1.1947: real time      1.2482
       DOS:  cpu time      0.0037: real time      0.0040
    --------------------------------------------
      LOOP:  cpu time     12.0342: real time     12.2075

 eigenvalue-minimisations  :   288
 total energy-change (2. order) : 0.6176199E+03  (-0.1843832E+04)
 number of electron      66.0000000 magnetization      13.0000000
 augmentation part       66.0000000 magnetization      13.0000000

 Free energy of the ion-electron system (eV)
  ---------------------------------------------------
  alpha Z        PSCENC =         2.30921614
  Ewald energy   TEWEN  =      7375.90636175
  -Hartree energ DENC   =    -11019.12791678
  -exchange      EXHF   =         0.00000000
  -V(xc)+E(xc)   XCENC  =       280.74174673
  PAW double counting   =      3569.23853945    -3588.66085360
  entropy T*S    EENTRO =        -0.01492023
  eigenvalues    EBANDS =      -487.88484526
  atomic energy  EATOM  =      4485.11259046
  Solvation  Ediel_sol  =         0.00000000
  ---------------------------------------------------
  free energy    TOTEN  =       617.61991866 eV

  energy without entropy =      617.63483889  energy(sigma->0) =      617.62737877


--------------------------------------------------------------------------------------------------------




--------------------------------------- Iteration      1(   2)  ---------------------------------------


     EDDAV:  cpu time      1.4204: real time      1.4234
       DOS:  cpu time      0.0018: real time      0.0018
    --------------------------------------------
      LOOP:  cpu time      1.4222: real time      1.4252

 eigenvalue-minimisations  :   384
 total energy-change (2. order) :-0.4361583E+03  (-0.4336742E+03)
 number of electron      66.0000000 magnetization      13.0000000
 augmentation part       66.0000000 magnetization      13.0000000

 Free energy of the ion-electron system (eV)
  ---------------------------------------------------
  alpha Z        PSCENC =         2.30921614
  Ewald energy   TEWEN  =      7375.90636175
  -Hartree energ DENC   =    -11019.12791678
  -exchange      EXHF   =         0.00000000
  -V(xc)+E(xc)   XCENC  =       280.74174673
  PAW double counting   =      3569.23853945    -3588.66085360
  entropy T*S    EENTRO =        -0.02410988
  eigenvalues    EBANDS =      -924.03395938
  atomic energy  EATOM  =      4485.11259046
  Solvation  Ediel_sol  =         0.00000000
  ---------------------------------------------------
  free energy    TOTEN  =       181.46161489 eV

  energy without entropy =      181.48572477  energy(sigma->0) =      181.47366983


--------------------------------------------------------------------------------------------------------




--------------------------------------- Iteration      1(   3)  ---------------------------------------


     EDDAV:  cpu time      1.1055: real time      1.1072
       DOS:  cpu time      0.0009: real time      0.0009
    --------------------------------------------
      LOOP:  cpu time      1.1064: real time      1.1081

 eigenvalue-minimisations  :   288
 total energy-change (2. order) :-0.2091825E+03  (-0.2067082E+03)
 number of electron      66.0000000 magnetization      13.0000000
 augmentation part       66.0000000 magnetization      13.0000000

 Free energy of the ion-electron system (eV)
  ---------------------------------------------------
  alpha Z        PSCENC =         2.30921614
  Ewald energy   TEWEN  =      7375.90636175
  -Hartree energ DENC   =    -11019.12791678
  -exchange      EXHF   =         0.00000000
  -V(xc)+E(xc)   XCENC  =       280.74174673
  PAW double counting   =      3569.23853945    -3588.66085360
  entropy T*S    EENTRO =        -0.00000000
  eigenvalues    EBANDS =     -1133.24061666
  atomic energy  EATOM  =      4485.11259046
  Solvation  Ediel_sol  =         0.00000000
  ---------------------------------------------------
  free energy    TOTEN  =       -27.72093251 eV

  energy without entropy =      -27.72093251  energy(sigma->0) =      -27.72093251


--------------------------------------------------------------------------------------------------------




--------------------------------------- Iteration      1(   4)  ---------------------------------------


     EDDAV:  cpu time      0.7850: real time      0.7863
       DOS:  cpu time      0.0009: real time      0.0009
    --------------------------------------------
      LOOP:  cpu time      0.7859: real time      0.7872

 eigenvalue-minimisations  :   192
 total energy-change (2. order) :-0.3144951E+02  (-0.3144429E+02)
 number of electron      66.0000000 magnetization      13.0000000
 augmentation part       66.0000000 magnetization      13.0000000

 Free energy of the ion-electron system (eV)
  ---------------------------------------------------
  alpha Z        PSCENC =         2.30921614
  Ewald energy   TEWEN  =      7375.90636175
  -Hartree energ DENC   =    -11019.12791678
  -exchange      EXHF   =         0.00000000
  -V(xc)+E(xc)   XCENC  =       280.74174673
  PAW double counting   =      3569.23853945    -3588.66085360
  entropy T*S    EENTRO =        -0.00000000
  eigenvalues    EBANDS =     -1164.69013126
  atomic energy  EATOM  =      4485.11259046
  Solvation  Ediel_sol  =         0.00000000
  ---------------------------------------------------
  free energy    TOTEN  =       -59.17044712 eV

  energy without entropy =      -59.17044712  energy(sigma->0) =      -59.17044712


--------------------------------------------------------------------------------------------------------




--------------------------------------- Iteration      1(   5)  ---------------------------------------


     EDDAV:  cpu time      1.2475: real time      1.2490
       DOS:  cpu time      0.0008: real time      0.0008
    CHARGE:  cpu time      2.4486: real time      2.4514
    MIXING:  cpu time      0.0519: real time      0.0520
    --------------------------------------------
      LOOP:  cpu time      3.7488: real time      3.7533

 eigenvalue-minimisations  :   336
 total energy-change (2. order) :-0.6315623E+00  (-0.6308817E+00)
 number of electron      66.0000029 magnetization      12.3987321
 augmentation part        6.3663741 magnetization      12.5031678

 Broyden mixing:
  rms(total) = 0.28066E+01    rms(broyden)= 0.28061E+01
  rms(prec ) = 0.28185E+01
  weight for this iteration     100.00

 Free energy of the ion-electron system (eV)
  ---------------------------------------------------
  alpha Z        PSCENC =         2.30921614
  Ewald energy   TEWEN  =      7375.90636175
  -Hartree energ DENC   =    -11019.12791678
  -exchange      EXHF   =         0.00000000
  -V(xc)+E(xc)   XCENC  =       280.74174673
  PAW double counting   =      3569.23853945    -3588.66085360
  entropy T*S    EENTRO =        -0.00000000
  eigenvalues    EBANDS =     -1165.32169351
  atomic energy  EATOM  =      4485.11259046
  Solvation  Ediel_sol  =         0.00000000
  ---------------------------------------------------
  free energy    TOTEN  =       -59.80200937 eV

  energy without entropy =      -59.80200937  energy(sigma->0) =      -59.80200937


--------------------------------------------------------------------------------------------------------




--------------------------------------- Iteration      1(   6)  ---------------------------------------


    POTLOK:  cpu time      7.7718: real time      7.7812
    SETDIJ:  cpu time      1.2981: real time      1.2990
     EDDAV:  cpu time      0.9590: real time      0.9605
       DOS:  cpu time      0.0010: real time      0.0010
    CHARGE:  cpu time      2.3859: real time      2.3884
    MIXING:  cpu time      0.0320: real time      0.0383
    --------------------------------------------
      LOOP:  cpu time     12.4479: real time     12.4684

 eigenvalue-minimisations  :   240
 total energy-change (2. order) : 0.3039606E+01  (-0.1235640E+01)
 number of electron      66.0000028 magnetization      11.8334015
 augmentation part        6.1944200 magnetization      11.7079137

 Broyden mixing:
  rms(total) = 0.13685E+01    rms(broyden)= 0.13684E+01
  rms(prec ) = 0.13744E+01
  weight for this iteration     100.00

 eigenvalues of (default mixing * dielectric matrix)
  average eigenvalue GAMMA=   0.8525
  0.8525

 Free energy of the ion-electron system (eV)
  ---------------------------------------------------
  alpha Z        PSCENC =         2.30921614
  Ewald energy   TEWEN  =      7375.90636175
  -Hartree energ DENC   =    -11083.01080098
  -exchange      EXHF   =         0.00000000
  -V(xc)+E(xc)   XCENC  =       285.54443589
  PAW double counting   =      4474.05234630    -4494.89434078
  entropy T*S    EENTRO =        -0.00000000
  eigenvalues    EBANDS =     -1101.78221182
  atomic energy  EATOM  =      4485.11259046
  Solvation  Ediel_sol  =         0.00000000
  ---------------------------------------------------
  free energy    TOTEN  =       -56.76240304 eV

  energy without entropy =      -56.76240304  energy(sigma->0) =      -56.76240304


--------------------------------------------------------------------------------------------------------




--------------------------------------- Iteration      1(   7)  ---------------------------------------


    POTLOK:  cpu time      7.8134: real time      7.8218
    SETDIJ:  cpu time      1.2967: real time      1.2981
     EDDAV:  cpu time      1.0857: real time      1.0865
       DOS:  cpu time      0.0013: real time      0.0013
    CHARGE:  cpu time      2.3886: real time      2.3909
    MIXING:  cpu time      0.0352: real time      0.0370
    --------------------------------------------
      LOOP:  cpu time     12.6210: real time     12.6358

 eigenvalue-minimisations  :   288
 total energy-change (2. order) :-0.2543668E+01  (-0.2544918E+00)
 number of electron      66.0000027 magnetization      10.9449351
 augmentation part        6.1473786 magnetization      10.9076686

 Broyden mixing:
  rms(total) = 0.77830E+00    rms(broyden)= 0.77829E+00
  rms(prec ) = 0.78113E+00
  weight for this iteration     100.00

 eigenvalues of (default mixing * dielectric matrix)
  average eigenvalue GAMMA=   1.0745
  1.3763  0.7727

 Free energy of the ion-electron system (eV)
  ---------------------------------------------------
  alpha Z        PSCENC =         2.30921614
  Ewald energy   TEWEN  =      7375.90636175
  -Hartree energ DENC   =    -11110.11717673
  -exchange      EXHF   =         0.00000000
  -V(xc)+E(xc)   XCENC  =       284.70099631
  PAW double counting   =      5163.55273179    -5184.57959233
  entropy T*S    EENTRO =        -0.00000000
  eigenvalues    EBANDS =     -1076.19119863
  atomic energy  EATOM  =      4485.11259046
  Solvation  Ediel_sol  =         0.00000000
  ---------------------------------------------------
  free energy    TOTEN  =       -59.30607123 eV

  energy without entropy =      -59.30607123  energy(sigma->0) =      -59.30607123


--------------------------------------------------------------------------------------------------------




--------------------------------------- Iteration      1(   8)  ---------------------------------------


    POTLOK:  cpu time      8.0545: real time      8.0640
    SETDIJ:  cpu time      1.2985: real time      1.2996
     EDDAV:  cpu time      1.1200: real time      1.1211
       DOS:  cpu time      0.0011: real time      0.0011
    CHARGE:  cpu time      2.3854: real time      2.3883
    MIXING:  cpu time      0.0222: real time      0.0221
    --------------------------------------------
      LOOP:  cpu time     12.8815: real time     12.8962

 eigenvalue-minimisations  :   288
 total energy-change (2. order) :-0.9326608E+00  (-0.8049904E-01)
 number of electron      66.0000027 magnetization      10.3473625
 augmentation part        6.1206123 magnetization      10.3318683

 Broyden mixing:
  rms(total) = 0.37770E+00    rms(broyden)= 0.37769E+00
  rms(prec ) = 0.37830E+00
  weight for this iteration     100.00

 eigenvalues of (default mixing * dielectric matrix)
  average eigenvalue GAMMA=   1.1993
  2.1213  0.8512  0.6253

 Free energy of the ion-electron system (eV)
  ---------------------------------------------------
  alpha Z        PSCENC =         2.30921614
  Ewald energy   TEWEN  =      7375.90636175
  -Hartree energ DENC   =    -11135.07363915
  -exchange      EXHF   =         0.00000000
  -V(xc)+E(xc)   XCENC  =       285.19695523
  PAW double counting   =      5997.12782658    -6018.17317187
  entropy T*S    EENTRO =        -0.00000000
  eigenvalues    EBANDS =     -1052.64487121
  atomic energy  EATOM  =      4485.11259046
  Solvation  Ediel_sol  =         0.00000000
  ---------------------------------------------------
  free energy    TOTEN  =       -60.23873207 eV

  energy without entropy =      -60.23873207  energy(sigma->0) =      -60.23873207


--------------------------------------------------------------------------------------------------------




--------------------------------------- Iteration      1(   9)  ---------------------------------------


    POTLOK:  cpu time      8.2281: real time      8.2377
    SETDIJ:  cpu time      1.3019: real time      1.3034
     EDDAV:  cpu time      0.9770: real time      0.9781
       DOS:  cpu time      0.0010: real time      0.0010
    CHARGE:  cpu time      2.4512: real time      2.4528
    MIXING:  cpu time      0.0225: real time      0.0225
    --------------------------------------------
      LOOP:  cpu time     12.9817: real time     12.9956

 eigenvalue-minimisations  :   240
 total energy-change (2. order) :-0.3038127E+00  (-0.6473527E-02)
 number of electron      66.0000026 magnetization       9.6557180
 augmentation part        6.1183808 magnetization       9.6417053

 Broyden mixing:
  rms(total) = 0.21387E+00    rms(broyden)= 0.21387E+00
  rms(prec ) = 0.21434E+00
  weight for this iteration     100.00

 eigenvalues of (default mixing * dielectric matrix)
  average eigenvalue GAMMA=   1.2290
  2.2211  1.2584  0.8244  0.6121

 Free energy of the ion-electron system (eV)
  ---------------------------------------------------
  alpha Z        PSCENC =         2.30921614
  Ewald energy   TEWEN  =      7375.90636175
  -Hartree energ DENC   =    -11141.52640980
  -exchange      EXHF   =         0.00000000
  -V(xc)+E(xc)   XCENC  =       285.28355112
  PAW double counting   =      6287.16874226    -6308.09925625
  entropy T*S    EENTRO =        -0.00000000
  eigenvalues    EBANDS =     -1046.69734043
  atomic energy  EATOM  =      4485.11259046
  Solvation  Ediel_sol  =         0.00000000
  ---------------------------------------------------
  free energy    TOTEN  =       -60.54254475 eV

  energy without entropy =      -60.54254475  energy(sigma->0) =      -60.54254475


--------------------------------------------------------------------------------------------------------




--------------------------------------- Iteration      1(  10)  ---------------------------------------


    POTLOK:  cpu time      8.2216: real time      8.2317
    SETDIJ:  cpu time      1.3017: real time      1.3027
     EDDAV:  cpu time      0.9283: real time      0.9293
       DOS:  cpu time      0.0009: real time      0.0009
    CHARGE:  cpu time      2.3892: real time      2.3919
    MIXING:  cpu time      0.0321: real time      0.0321
    --------------------------------------------
      LOOP:  cpu time     12.8737: real time     12.8886

 eigenvalue-minimisations  :   240
 total energy-change (2. order) :-0.1853101E+00  (-0.2156219E-02)
 number of electron      66.0000027 magnetization       8.5916298
 augmentation part        6.1172357 magnetization       8.5822976

 Broyden mixing:
  rms(total) = 0.16536E+00    rms(broyden)= 0.16536E+00
  rms(prec ) = 0.16555E+00
  weight for this iteration     100.00

 eigenvalues of (default mixing * dielectric matrix)
  average eigenvalue GAMMA=   1.3059
  2.4101  1.7551  0.9267  0.8271  0.6104

 Free energy of the ion-electron system (eV)
  ---------------------------------------------------
  alpha Z        PSCENC =         2.30921614
  Ewald energy   TEWEN  =      7375.90636175
  -Hartree energ DENC   =    -11142.59291273
  -exchange      EXHF   =         0.00000000
  -V(xc)+E(xc)   XCENC  =       285.12721295
  PAW double counting   =      6347.48947730    -6368.28961231
  entropy T*S    EENTRO =        -0.00000000
  eigenvalues    EBANDS =     -1045.79018846
  atomic energy  EATOM  =      4485.11259046
  Solvation  Ediel_sol  =         0.00000000
  ---------------------------------------------------
  free energy    TOTEN  =       -60.72785489 eV

  energy without entropy =      -60.72785489  energy(sigma->0) =      -60.72785489


--------------------------------------------------------------------------------------------------------




--------------------------------------- Iteration      1(  11)  ---------------------------------------


    POTLOK:  cpu time      7.9911: real time      8.0014
    SETDIJ:  cpu time      1.3002: real time      1.3009
     EDDAV:  cpu time      1.0195: real time      1.0207
       DOS:  cpu time      0.0016: real time      0.0016
    CHARGE:  cpu time      2.3918: real time      2.3943
    MIXING:  cpu time      0.0262: real time      0.0262
    --------------------------------------------
      LOOP:  cpu time     12.7304: real time     12.7451

 eigenvalue-minimisations  :   264
 total energy-change (2. order) :-0.1961256E+00  (-0.1583449E-02)
 number of electron      66.0000027 magnetization       7.6169461
 augmentation part        6.1196911 magnetization       7.6106837

 Broyden mixing:
  rms(total) = 0.12938E+00    rms(broyden)= 0.12938E+00
  rms(prec ) = 0.12948E+00
  weight for this iteration     100.00

 eigenvalues of (default mixing * dielectric matrix)
  average eigenvalue GAMMA=   1.3874
  2.9158  2.0698  1.1718  0.8378  0.7186  0.6106

 Free energy of the ion-electron system (eV)
  ---------------------------------------------------
  alpha Z        PSCENC =         2.30921614
  Ewald energy   TEWEN  =      7375.90636175
  -Hartree energ DENC   =    -11145.09651382
  -exchange      EXHF   =         0.00000000
  -V(xc)+E(xc)   XCENC  =       284.99610226
  PAW double counting   =      6393.49708955    -6414.18872098
  entropy T*S    EENTRO =        -0.00000000
  eigenvalues    EBANDS =     -1043.46010582
  atomic energy  EATOM  =      4485.11259046
  Solvation  Ediel_sol  =         0.00000000
  ---------------------------------------------------
  free energy    TOTEN  =       -60.92398044 eV

  energy without entropy =      -60.92398044  energy(sigma->0) =      -60.92398044


--------------------------------------------------------------------------------------------------------




--------------------------------------- Iteration      1(  12)  ---------------------------------------


    POTLOK:  cpu time      7.9382: real time      7.9489
    SETDIJ:  cpu time      1.2997: real time      1.3005
     EDDAV:  cpu time      1.0827: real time      1.0836
       DOS:  cpu time      0.0016: real time      0.0016
    CHARGE:  cpu time      2.3938: real time      2.4006
    MIXING:  cpu time      0.0274: real time      0.0275
    --------------------------------------------
      LOOP:  cpu time     12.7435: real time     12.7627

 eigenvalue-minimisations  :   288
 total energy-change (2. order) :-0.8396719E-01  (-0.6665725E-03)
 number of electron      66.0000027 magnetization       5.8957959
 augmentation part        6.1199263 magnetization       5.8919088

 Broyden mixing:
  rms(total) = 0.10611E+00    rms(broyden)= 0.10611E+00
  rms(prec ) = 0.10616E+00
  weight for this iteration     100.00

 eigenvalues of (default mixing * dielectric matrix)
  average eigenvalue GAMMA=   1.5749
  3.9503  2.2598  1.6666  1.0220  0.8212  0.6095  0.6950

 Free energy of the ion-electron system (eV)
  ---------------------------------------------------
  alpha Z        PSCENC =         2.30921614
  Ewald energy   TEWEN  =      7375.90636175
  -Hartree energ DENC   =    -11147.45232748
  -exchange      EXHF   =         0.00000000
  -V(xc)+E(xc)   XCENC  =       284.96200991
  PAW double counting   =      6381.65179244    -6402.33397833
  entropy T*S    EENTRO =        -0.00000000
  eigenvalues    EBANDS =     -1041.16361252
  atomic energy  EATOM  =      4485.11259046
  Solvation  Ediel_sol  =         0.00000000
  ---------------------------------------------------
  free energy    TOTEN  =       -61.00794764 eV

  energy without entropy =      -61.00794764  energy(sigma->0) =      -61.00794764


--------------------------------------------------------------------------------------------------------




--------------------------------------- Iteration      1(  13)  ---------------------------------------


    POTLOK:  cpu time      7.9752: real time      7.9848
    SETDIJ:  cpu time      1.3002: real time      1.3010
     EDDAV:  cpu time      0.7811: real time      0.7824
       DOS:  cpu time      0.0011: real time      0.0011
    CHARGE:  cpu time      2.3853: real time      2.3878
    MIXING:  cpu time      0.0299: real time      0.0299
    --------------------------------------------
      LOOP:  cpu time     12.4728: real time     12.4871

 eigenvalue-minimisations  :   192
 total energy-change (2. order) :-0.7951519E-01  (-0.1358624E-02)
 number of electron      66.0000026 magnetization       4.5002900
 augmentation part        6.1175656 magnetization       4.5005982

 Broyden mixing:
  rms(total) = 0.74876E-01    rms(broyden)= 0.74875E-01
  rms(prec ) = 0.74911E-01
  weight for this iteration     100.00

 eigenvalues of (default mixing * dielectric matrix)
  average eigenvalue GAMMA=   1.8096
  6.0215  2.4085  1.8798  1.1998  0.8572  0.8250  0.6085  0.6762

 Free energy of the ion-electron system (eV)
  ---------------------------------------------------
  alpha Z        PSCENC =         2.30921614
  Ewald energy   TEWEN  =      7375.90636175
  -Hartree energ DENC   =    -11150.79889948
  -exchange      EXHF   =         0.00000000
  -V(xc)+E(xc)   XCENC  =       284.94511448
  PAW double counting   =      6339.51522371    -6360.24079740
  entropy T*S    EENTRO =        -0.00000000
  eigenvalues    EBANDS =     -1037.83627249
  atomic energy  EATOM  =      4485.11259046
  Solvation  Ediel_sol  =         0.00000000
  ---------------------------------------------------
  free energy    TOTEN  =       -61.08746283 eV

  energy without entropy =      -61.08746283  energy(sigma->0) =      -61.08746283


--------------------------------------------------------------------------------------------------------




--------------------------------------- Iteration      1(  14)  ---------------------------------------


    POTLOK:  cpu time      8.0709: real time      8.0805
    SETDIJ:  cpu time      1.3001: real time      1.3008
     EDDAV:  cpu time      0.8706: real time      0.8718
       DOS:  cpu time      0.0011: real time      0.0011
    CHARGE:  cpu time      2.3868: real time      2.3892
    MIXING:  cpu time      0.0294: real time      0.0294
    --------------------------------------------
      LOOP:  cpu time     12.6590: real time     12.6729

 eigenvalue-minimisations  :   216
 total energy-change (2. order) :-0.3077001E-01  (-0.7429846E-03)
 number of electron      66.0000026 magnetization       3.6187272
 augmentation part        6.1161743 magnetization       3.6194308

 Broyden mixing:
  rms(total) = 0.56744E-01    rms(broyden)= 0.56744E-01
  rms(prec ) = 0.56788E-01
  weight for this iteration     100.00

 eigenvalues of (default mixing * dielectric matrix)
  average eigenvalue GAMMA=   1.9586
  7.8526  2.5376  1.9595  1.4542  1.0015  0.7854  0.7854  0.6059  0.6454

 Free energy of the ion-electron system (eV)
  ---------------------------------------------------
  alpha Z        PSCENC =         2.30921614
  Ewald energy   TEWEN  =      7375.90636175
  -Hartree energ DENC   =    -11152.09822440
  -exchange      EXHF   =         0.00000000
  -V(xc)+E(xc)   XCENC  =       284.93016979
  PAW double counting   =      6327.79573197    -6348.53486383
  entropy T*S    EENTRO =        -0.00000000
  eigenvalues    EBANDS =     -1036.53921471
  atomic energy  EATOM  =      4485.11259046
  Solvation  Ediel_sol  =         0.00000000
  ---------------------------------------------------
  free energy    TOTEN  =       -61.11823284 eV

  energy without entropy =      -61.11823284  energy(sigma->0) =      -61.11823284


--------------------------------------------------------------------------------------------------------




--------------------------------------- Iteration      1(  15)  ---------------------------------------


    POTLOK:  cpu time      7.8471: real time      7.8565
    SETDIJ:  cpu time      1.3010: real time      1.3019
     EDDAV:  cpu time      1.0218: real time      1.0229
       DOS:  cpu time      0.0010: real time      0.0010
    CHARGE:  cpu time      2.3863: real time      2.3887
    MIXING:  cpu time      0.0475: real time      0.0475
    --------------------------------------------
      LOOP:  cpu time     12.6046: real time     12.6183

 eigenvalue-minimisations  :   264
 total energy-change (2. order) :-0.1503215E-01  (-0.3145681E-03)
 number of electron      66.0000026 magnetization       2.5816366
 augmentation part        6.1167473 magnetization       2.5822017

 Broyden mixing:
  rms(total) = 0.45758E-01    rms(broyden)= 0.45758E-01
  rms(prec ) = 0.45797E-01
  weight for this iteration     100.00

 eigenvalues of (default mixing * dielectric matrix)
  average eigenvalue GAMMA=   2.1806
  9.9067  3.0091  2.1424  1.8050  1.2319  0.9449  0.8155  0.7134  0.6045  0.6326

 Free energy of the ion-electron system (eV)
  ---------------------------------------------------
  alpha Z        PSCENC =         2.30921614
  Ewald energy   TEWEN  =      7375.90636175
  -Hartree energ DENC   =    -11151.83751483
  -exchange      EXHF   =         0.00000000
  -V(xc)+E(xc)   XCENC  =       284.89452103
  PAW double counting   =      6329.29250983    -6350.02439340
  entropy T*S    EENTRO =        -0.00000000
  eigenvalues    EBANDS =     -1036.78655597
  atomic energy  EATOM  =      4485.11259046
  Solvation  Ediel_sol  =         0.00000000
  ---------------------------------------------------
  free energy    TOTEN  =       -61.13326499 eV

  energy without entropy =      -61.13326499  energy(sigma->0) =      -61.13326499


--------------------------------------------------------------------------------------------------------




--------------------------------------- Iteration      1(  16)  ---------------------------------------


    POTLOK:  cpu time      8.0559: real time      8.0656
    SETDIJ:  cpu time      1.3019: real time      1.3027
     EDDAV:  cpu time      1.0065: real time      1.0075
       DOS:  cpu time      0.0011: real time      0.0011
    CHARGE:  cpu time      2.3852: real time      2.3877
    MIXING:  cpu time      0.0328: real time      0.0328
    --------------------------------------------
      LOOP:  cpu time     12.7834: real time     12.7974

 eigenvalue-minimisations  :   264
 total energy-change (2. order) :-0.1059411E-01  (-0.2047634E-03)
 number of electron      66.0000026 magnetization       1.8232626
 augmentation part        6.1181323 magnetization       1.8231362

 Broyden mixing:
  rms(total) = 0.34089E-01    rms(broyden)= 0.34089E-01
  rms(prec ) = 0.34120E-01
  weight for this iteration     100.00

 eigenvalues of (default mixing * dielectric matrix)
  average eigenvalue GAMMA=   2.3162
 11.4727  3.7494  2.3874  1.8008  1.3924  1.0003  0.9125  0.8309  0.6923  0.6063
  0.6330

 Free energy of the ion-electron system (eV)
  ---------------------------------------------------
  alpha Z        PSCENC =         2.30921614
  Ewald energy   TEWEN  =      7375.90636175
  -Hartree energ DENC   =    -11150.95256753
  -exchange      EXHF   =         0.00000000
  -V(xc)+E(xc)   XCENC  =       284.84997350
  PAW double counting   =      6339.63704279    -6360.35547086
  entropy T*S    EENTRO =        -0.00000000
  eigenvalues    EBANDS =     -1037.65100534
  atomic energy  EATOM  =      4485.11259046
  Solvation  Ediel_sol  =         0.00000000
  ---------------------------------------------------
  free energy    TOTEN  =       -61.14385909 eV

  energy without entropy =      -61.14385909  energy(sigma->0) =      -61.14385909


--------------------------------------------------------------------------------------------------------




--------------------------------------- Iteration      1(  17)  ---------------------------------------


    POTLOK:  cpu time      7.7611: real time      7.7707
    SETDIJ:  cpu time      1.3016: real time      1.3024
     EDDAV:  cpu time      1.0835: real time      1.0846
       DOS:  cpu time      0.0009: real time      0.0009
    CHARGE:  cpu time      2.3968: real time      2.3995
    MIXING:  cpu time      0.0341: real time      0.0341
    --------------------------------------------
      LOOP:  cpu time     12.5779: real time     12.5921

 eigenvalue-minimisations  :   288
 total energy-change (2. order) :-0.7720375E-02  (-0.8818599E-04)
 number of electron      66.0000026 magnetization       1.1462082
 augmentation part        6.1172594 magnetization       1.1459092

 Broyden mixing:
  rms(total) = 0.26329E-01    rms(broyden)= 0.26329E-01
  rms(prec ) = 0.26349E-01
  weight for this iteration     100.00

 eigenvalues of (default mixing * dielectric matrix)
  average eigenvalue GAMMA=   2.4255
 12.6917  4.5199  2.5414  1.8566  1.7389  1.2207  0.9827  0.8168  0.8168  0.6841
  0.6068  0.6291

 Free energy of the ion-electron system (eV)
  ---------------------------------------------------
  alpha Z        PSCENC =         2.30921614
  Ewald energy   TEWEN  =      7375.90636175
  -Hartree energ DENC   =    -11150.42741538
  -exchange      EXHF   =         0.00000000
  -V(xc)+E(xc)   XCENC  =       284.84391684
  PAW double counting   =      6352.64625532    -6373.36531660
  entropy T*S    EENTRO =        -0.00000000
  eigenvalues    EBANDS =     -1038.17718801
  atomic energy  EATOM  =      4485.11259046
  Solvation  Ediel_sol  =         0.00000000
  ---------------------------------------------------
  free energy    TOTEN  =       -61.15157947 eV

  energy without entropy =      -61.15157947  energy(sigma->0) =      -61.15157947


--------------------------------------------------------------------------------------------------------




--------------------------------------- Iteration      1(  18)  ---------------------------------------


    POTLOK:  cpu time      7.7043: real time      7.7136
    SETDIJ:  cpu time      1.3025: real time      1.3035
     EDDAV:  cpu time      0.9483: real time      0.9493
       DOS:  cpu time      0.0011: real time      0.0011
    CHARGE:  cpu time      2.4021: real time      2.4046
    MIXING:  cpu time      0.0353: real time      0.0353
    --------------------------------------------
      LOOP:  cpu time     12.3936: real time     12.4074

 eigenvalue-minimisations  :   240
 total energy-change (2. order) :-0.1793426E-02  (-0.9523692E-04)
 number of electron      66.0000026 magnetization       0.5342468
 augmentation part        6.1165184 magnetization       0.5340753

 Broyden mixing:
  rms(total) = 0.18332E-01    rms(broyden)= 0.18332E-01
  rms(prec ) = 0.18352E-01
  weight for this iteration     100.00

 eigenvalues of (default mixing * dielectric matrix)
  average eigenvalue GAMMA=   2.6250
 14.3938  5.8634  2.9474  2.3396  1.7331  1.3601  0.9968  0.9968  0.7905  0.7905
  0.6830  0.6073  0.6234

 Free energy of the ion-electron system (eV)
  ---------------------------------------------------
  alpha Z        PSCENC =         2.30921614
  Ewald energy   TEWEN  =      7375.90636175
  -Hartree energ DENC   =    -11149.93277388
  -exchange      EXHF   =         0.00000000
  -V(xc)+E(xc)   XCENC  =       284.84169192
  PAW double counting   =      6351.93559137    -6372.65774240
  entropy T*S    EENTRO =        -0.00000000
  eigenvalues    EBANDS =     -1038.66830826
  atomic energy  EATOM  =      4485.11259046
  Solvation  Ediel_sol  =         0.00000000
  ---------------------------------------------------
  free energy    TOTEN  =       -61.15337290 eV

  energy without entropy =      -61.15337290  energy(sigma->0) =      -61.15337290


--------------------------------------------------------------------------------------------------------




--------------------------------------- Iteration      1(  19)  ---------------------------------------


    POTLOK:  cpu time      8.0156: real time      8.0279
    SETDIJ:  cpu time      1.3049: real time      1.3057
     EDDAV:  cpu time      0.9343: real time      0.9354
       DOS:  cpu time      0.0012: real time      0.0012
    CHARGE:  cpu time      2.3859: real time      2.3882
    MIXING:  cpu time      0.0365: real time      0.0365
    --------------------------------------------
      LOOP:  cpu time     12.6783: real time     12.6949

 eigenvalue-minimisations  :   240
 total energy-change (2. order) : 0.1947602E-02  (-0.9291154E-04)
 number of electron      66.0000026 magnetization       0.3118846
 augmentation part        6.1170162 magnetization       0.3119012

 Broyden mixing:
  rms(total) = 0.11234E-01    rms(broyden)= 0.11233E-01
  rms(prec ) = 0.11256E-01
  weight for this iteration     100.00

 eigenvalues of (default mixing * dielectric matrix)
  average eigenvalue GAMMA=   2.8010
 16.6065  7.2760  3.3214  2.4110  1.7462  1.4697  1.1046  1.0182  0.8242  0.8242
  0.7032  0.6820  0.6095  0.6170

 Free energy of the ion-electron system (eV)
  ---------------------------------------------------
  alpha Z        PSCENC =         2.30921614
  Ewald energy   TEWEN  =      7375.90636175
  -Hartree energ DENC   =    -11149.37547728
  -exchange      EXHF   =         0.00000000
  -V(xc)+E(xc)   XCENC  =       284.83472330
  PAW double counting   =      6343.82144586    -6364.54256523
  entropy T*S    EENTRO =        -0.00000000
  eigenvalues    EBANDS =     -1039.21772029
  atomic energy  EATOM  =      4485.11259046
  Solvation  Ediel_sol  =         0.00000000
  ---------------------------------------------------
  free energy    TOTEN  =       -61.15142529 eV

  energy without entropy =      -61.15142529  energy(sigma->0) =      -61.15142529


--------------------------------------------------------------------------------------------------------




--------------------------------------- Iteration      1(  20)  ---------------------------------------


    POTLOK:  cpu time      8.0131: real time      8.0233
    SETDIJ:  cpu time      1.3050: real time      1.3058
     EDDAV:  cpu time      0.8569: real time      0.8583
       DOS:  cpu time      0.0009: real time      0.0010
    CHARGE:  cpu time      2.3841: real time      2.3864
    MIXING:  cpu time      0.0566: real time      0.0566
    --------------------------------------------
      LOOP:  cpu time     12.6166: real time     12.6313

 eigenvalue-minimisations  :   216
 total energy-change (2. order) :-0.9592379E-03  (-0.2608224E-04)
 number of electron      66.0000026 magnetization       0.1706693
 augmentation part        6.1172454 magnetization       0.1707649

 Broyden mixing:
  rms(total) = 0.82854E-02    rms(broyden)= 0.82851E-02
  rms(prec ) = 0.83067E-02
  weight for this iteration     100.00

[...]
  250        set_dd_paw                            1.296661                            1   3
  251          set_rsgf_all                          0.000002                          1   4
  252          m_sumb_d                              1.296475                          7   4
  253        strkin                                0.001953                            1   3
  254          m_sumb_d                              0.001001                          1   4
  255        strelo                                0.017369                            1   3
  256          m_sumb_d                              0.000202                          2   4
  257        strnlr                                0.657605                            1   3
  258          rspher_all                            0.024493                          9   4
  259          phaser                                0.000007                          9   4
  260          rpro_isp                              0.629349                          9   4
  261            fftwav_mpi                            0.620353                       36   5
  262              fft3d_mpi                             0.541966                     36   6
  263                fftbrc_mpi                            0.447216                   36   7
  264                  fftbas_plan_mpi                       0.447104                 36   8
  265                    dfftw_execute                         0.229394              108   9
  266                    map_forward                           0.194319               72   9
  267                      map_gather                            0.044443             36  10
  268                      m_alltoallv_z                         0.032220             36  10
  269                      map_scatter                           0.053499             36  10
  270            rpromu                                0.008391                       18   5
  271              rpromu_gemm                           0.002119                    234   6
  272              m_sumb_d                              0.001738                     36   6
  273          m_sumb_d                              0.003146                          1   4
  274        m_sumb_d                              0.103177                            7   3
  275        fft3d_mpi                             0.913319                           82   3
  276          fftbrc_mpi                            0.868751                         82   4
  277            fftbas_plan_mpi                       0.868512                       82   5
  278              dfftw_execute                         0.217712                    246   6
  279              map_forward                           0.296639                     80   6
  280                map_gather                            0.039679                   40   7
  281                m_alltoallv_z                         0.229993                   40   7
  282                map_scatter                           0.026069                   40   7
  283              map_backward                          0.300728                     84   6
  284                map_gather                            0.023588                   42   7
  285                m_alltoallv_z                         0.213965                   42   7
  286                map_scatter                           0.062448                   42   7
  287        forhar                                0.107404                            2   3
  288          m_sumb_d                              0.000297                          2   4
  289        strehar                               0.017801                            1   3
  290          m_sumb_d                              0.000633                          1   4
  291        chggra                                0.044264                            1   3
  292          fft3d_mpi                             0.032342                          3   4
  293            fftbrc_mpi                            0.030701                        3   5
  294              fftbas_plan_mpi                       0.030694                      3   6
  295                dfftw_execute                         0.007820                    9   7
  296                map_backward                          0.007479                    2   7
  297                  map_gather                            0.000596                  1   8
  298                  m_alltoallv_z                         0.005706                  1   8
  299                  map_scatter                           0.001150                  1   8
  300                map_forward                           0.013580                    4   7
  301                  map_gather                            0.002299                  2   8
  302                  m_alltoallv_z                         0.009938                  2   8
  303                  map_scatter                           0.001304                  2   8
  304          m_sumb_d                              0.000084                          2   4
  305          pothar                                0.002491                          1   4
  306            m_sumb_d                              0.000345                        1   5
  307        brmix                                 0.074451                            1   3
  308          m_sumb_d                              0.000507                          6   4
  309          brpre                                 0.000369                          2   4
  310          setg0                                 0.006462                          1   4
  311          broyd                                 0.057413                          1   4
  312            m_sumb_d                              0.004032                       36   5
  313            brget                                 0.010336                      183   5
  314            brsav                                 0.002329                       34   5
  315        m_bcast_d                             0.001078                            2   3
  316      potlok                                7.887334                              1   2
  317        fft3d_mpi                             0.905647                           86   3
  318          fftbrc_mpi                            0.856550                         86   4
  319            fftbas_plan_mpi                       0.856298                       86   5
  320              dfftw_execute                         0.232391                    258   6
  321              map_forward                           0.279082                     88   6
  322                map_gather                            0.046994                   46   7
  323                m_alltoallv_z                         0.198568                   46   7
  324                map_scatter                           0.032702                   46   7
  325              map_backward                          0.290626                     84   6
  326                map_gather                            0.023719                   42   7
  327                m_alltoallv_z                         0.201479                   42   7
  328                map_scatter                           0.064527                   42   7
  329        m_sumb_d                              0.320461                            6   3
  330        pothar                                0.002243                            1   3
  331          m_sumb_d                              0.000187                          1   4
  332        m_bcast_d                             0.008437                            2   3
  333      potlok_metagga                        0.000001                              1   2
  334      set_dd_magatom                        0.000001                              1   2
  335      set_dd_paw                            1.297095                              1   2
  336        set_rsgf_all                          0.000002                            1   3
  337        m_sumb_d                              1.296962                            7   3
  338      m_bcast_d                             0.000215                              2   2
  339      densta                                0.000496                              1   2
  340        m_sumb_d                              0.000425                            7   3
 
 Flat profile
 ============
 
             routine name                   CPU           calls
 ---------------------------------------------------------------
 potlok                                206.412006          31
 set_charge                             60.101113          30
 m_sumb_d                               59.969407        5597
 total_time                             20.105812           1
 m_alltoallv_z                          17.953946        4485
 dfftw_execute                          16.490520       13089
 force_and_stress                        6.759179           1
 fft3d_mpi                               5.485209        4363
 map_scatter                             5.312360        4485
 m_alltoall_d                            4.292447        3551
 map_gather                              4.200893        4485
 fftbas_plan_mpi                         2.807781        4363
 fftwav_mpi                              2.633487        1006
 map_forward                             1.903770        4826
 vhamil                                  1.690912         485
 lapack                                  1.456439         485
 orth1                                   1.174987        1459
 eddav                                   0.741788          34
 soft_charge                             0.688836          30
 broyd                                   0.461531          30
 ggemm                                   0.424773         621
 m_bcast_d                               0.379616        1521
 m_bcast_z                               0.365921         100
 brmix                                   0.350933          30
 redis_pw                                0.323344        1459
 eccp                                    0.297151         136
 pw_charge                               0.278959         120
 w1_copy                                 0.253393        1455
 fftext_mpi                              0.210588         485
 setdij_                                 0.202077          58
 setg0                                   0.198096          32
 elmin                                   0.196465           1
 augmentation_charge                     0.183265          30
 brget                                   0.144378        2703
 kinhamil                                0.115738         485
 forhar                                  0.107107           2
 racc0                                   0.105662         485
 brsav                                   0.099346         590
 lincom                                  0.098573          70
 rpro1                                   0.072144         349
 apply_precond                           0.070982         349
 pothar                                  0.066083          32
 forloc                                  0.054729           1
 setup_precond                           0.051374         136
 fft_gq                                  0.050751          30
 inisym                                  0.045144           1
 stufak                                  0.039062           1
 map_backward                            0.038921        3900
 rspher_all                              0.036516          14
 set_dd_paw                              0.035463          32
 redis_proj                              0.031705        1810
 rpro_isp                                0.025753          13
 strehar                                 0.017168           1
 strelo                                  0.017167           1
 overl                                   0.016493         836
 fftbrc_mpi                              0.013586        4363
 brpre                                   0.013118          60
 choleski                                0.012005           2
 rpromu_gemm                             0.010204         338
 chggra                                  0.009347           1
 overl1                                  0.009018         485
 hamiltmu                                0.008335         485
 newband                                 0.007719         553
 rpromu                                  0.007449          26
 fewald                                  0.005201           1
 raccmu_                                 0.005188         485
 densta                                  0.003756          35
 brgrid                                  0.003464           1
 w1_projall                              0.001705         349
 rsp                                     0.001193           1
 depsum                                  0.001050          30
 strkin                                  0.000952           1
 orthch                                  0.000790           1
 truncate_high_frequency_w1              0.000642         621
 strnlr                                  0.000610           1
 crpa_reader                             0.000239           1
 fornlr                                  0.000159           1
 vectorpot                               0.000157          31
 fordep                                  0.000128           1
 rcp                                     0.000123           1
 set_rsgf_all                            0.000081          32
 phaser                                  0.000051          81
 potlok_metagga                          0.000041          31
 set_dd_magatom                          0.000037          32
 posmap                                  0.000030           2
 rotate_active_occupied_orbital          0.000025           1
 proall                                  0.000023           1
 redis_pw_over_bands                     0.000001           1
 ---------------------------------------------------------------
  summed up times    425.763689994812     
 
 Accumulative profile
 ====================
 
             routine name                   CPU           calls
 ---------------------------------------------------------------
 total_time                            425.763690           1
 elmin                                 382.969480           1
 potlok                                247.801065          31
 set_charge                             71.771385          30
 m_sumb_d                               59.969407        5597
 fft3d_mpi                              54.206985        4363
 fftbrc_mpi                             48.721776        4363
 fftbas_plan_mpi                        48.708190        4363
 set_dd_paw                             41.623530          32
 eddav                                  32.958351          34
 m_alltoallv_z                          17.953946        4485
 fftwav_mpi                             17.853391        1006
 map_forward                            17.215274        4826
 dfftw_execute                          16.490520       13089
 force_and_stress                       12.792483           1
 map_backward                           12.194616        3900
 hamiltmu                                7.994202         485
 kinhamil                                6.127709         485
 fftext_mpi                              6.011970         485
 map_scatter                             5.312360        4485
 soft_charge                             5.203914          30
 m_alltoall_d                            4.292447        3551
 map_gather                              4.200893        4485
 redis_pw                                3.358942        1459
 newband                                 3.227932         553
 vhamil                                  1.690912         485
 lapack                                  1.456439         485
 brmix                                   1.383471          30
 redis_proj                              1.288554        1810
 orth1                                   1.174987        1459
 rpro_isp                                0.986439          13
 augmentation_charge                     0.959594          30
 broyd                                   0.803807          30
 strnlr                                  0.657605           1
 fft_gq                                  0.641790          30
 ggemm                                   0.424773         621
 m_bcast_d                               0.379616        1521
 m_bcast_z                               0.365921         100
 eccp                                    0.306805         136
 pw_charge                               0.278959         120
 fornlr                                  0.261163           1
 w1_copy                                 0.253393        1455
 setdij_                                 0.227197          58
 setg0                                   0.198096          32
 raccmu_                                 0.167246         485
 racc0                                   0.153041         485
 brget                                   0.144378        2703
 proall                                  0.110142           1
 forhar                                  0.107404           2
 w1_projall                              0.106923         349
 rpro1                                   0.105218         349
 brsav                                   0.099346         590
 lincom                                  0.098573          70
 pothar                                  0.092279          32
 orthch                                  0.083290           1
 apply_precond                           0.070982         349
 setup_precond                           0.057700         136
 forloc                                  0.055899           1
 inisym                                  0.045174           1
 chggra                                  0.044264           1
 depsum                                  0.039786          30
 stufak                                  0.039062           1
 rspher_all                              0.036516          14
 densta                                  0.029747          35
 fordep                                  0.022426           1
 rpromu                                  0.020302          26
 strehar                                 0.017801           1
 strelo                                  0.017369           1
 overl                                   0.016493         836
 brpre                                   0.013118          60
 choleski                                0.012005           2
 rpromu_gemm                             0.010204         338
 overl1                                  0.009018         485
 fewald                                  0.007044           1
 brgrid                                  0.003464           1
 strkin                                  0.001953           1
 rsp                                     0.001193           1
 truncate_high_frequency_w1              0.000642         621
 crpa_reader                             0.000239           1
 vectorpot                               0.000157          31
 rcp                                     0.000123           1
 set_rsgf_all                            0.000081          32
 phaser                                  0.000051          81
 potlok_metagga                          0.000041          31
 set_dd_magatom                          0.000037          32
 posmap                                  0.000030           2
 rotate_active_occupied_orbital          0.000025           1
 redis_pw_over_bands                     0.000001           1
 ---------------------------------------------------------------
 
Profiling took   0.118333  0.040997  0.008036  0.007421 seconds
Profiling took   0.147117 seconds
