 vasp.6.3.2 27Jun22 (build Jan 03 2024 23:25:20) gamma-only                     
  
 executed on           IFC15_impi date 2024.07.28  11:38:40
 running   96 mpi-ranks, with    1 threads/rank
 distrk:  each k-point on   96 cores,    1 groups
 distr:  one band on NCORE=   4 cores,   24 groups


--------------------------------------------------------------------------------------------------------


 INCAR:
   ENCUT = 600.00
   EDIFF = 1.00e-06
   EDIFFG = -0.01
   IBRION = 2
   ALGO = Normal
   ISMEAR = 0
   SIGMA = 0.05
   LCHARG = .FALSE.
   LWAVE = .FALSE.
   LREAL = Auto
   NELM = 2000
   NSW = 5000
   NCORE = 4
   ISPIN = 2
   GGA = MK
   PARAM1 = 0.1234
   PARAM2 = 1.0
   AGGAC = 0.0
   LUSE_VDW = .TRUE.
   LASPH = .TRUE.

 POTCAR:    PAW_PBE C 08Apr2002                   
 POTCAR:    PAW_PBE H 15Jun2001                   
 POTCAR:    PAW_PBE S 06Sep2000                   
 -----------------------------------------------------------------------------
|                                                                             |
|           W    W    AA    RRRRR   N    N  II  N    N   GGGG   !!!           |
|           W    W   A  A   R    R  NN   N  II  NN   N  G    G  !!!           |
|           W    W  A    A  R    R  N N  N  II  N N  N  G       !!!           |
|           W WW W  AAAAAA  RRRRR   N  N N  II  N  N N  G  GGG   !            |
|           WW  WW  A    A  R   R   N   NN  II  N   NN  G    G                |
|           W    W  A    A  R    R  N    N  II  N    N   GGGG   !!!           |
|                                                                             |
|     You use a magnetic or noncollinear calculation, but did not specify     |
|     the initial magnetic moment with the MAGMOM tag. Note that a            |
|     default of 1 will be used for all atoms. This ferromagnetic setup       |
|     may break the symmetry of the crystal, in particular it may rule        |
|     out finding an antiferromagnetic solution. Thence, we recommend         |
|     setting the initial magnetic moment manually or verifying carefully     |
|     that this magnetic setup is desired.                                    |
|                                                                             |
 -----------------------------------------------------------------------------

 -----------------------------------------------------------------------------
|                                                                             |
|               ----> ADVICE to this user running VASP <----                  |
|                                                                             |
|     You have switched on vdW-DFT.                                           |
|     This routine was written and supplied by Jiri Klimes. We recommend      |
|     that you carefully read and cite the following publications:            |
|       J. Klimes, D.R. Bowler, A. Michelides                                 |
|          J. Phys.: Cond Matt. 22 022201 (2010)                              |
|       J. Klimes, D.R. Bowler, A. Michelides                                 |
|          Phys. Rev. B. 83, 195131 (2011)                                    |
|     and references therein.                                                 |
|                                                                             |
 -----------------------------------------------------------------------------

 POTCAR:    PAW_PBE C 08Apr2002                   
   SHA256 =  253f7b50bb8d59471dbedb8285d89021f4a42ed1a2c5d38a03a736e69125dd95 C/POTCAR              
   COPYR  = (c) Copyright 08Apr2002 Georg Kresse                                                    
   COPYR  = This file is part of the software VASP. Any use, copying, and all other rights are regul
   COPYR  = If you do not have a valid VASP license, you may not use, copy or distribute this file. 
   VRHFIN =C: s2p2                                                                                  
   LEXCH  = PE                                                                                      
   EATOM  =   147.1560 eV,   10.8157 Ry                                                             
                                                                                                    
   TITEL  = PAW_PBE C 08Apr2002                                                                     
   LULTRA =        F    use ultrasoft PP ?                                                          
   IUNSCR =        1    unscreen: 0-lin 1-nonlin 2-no                                               
   RPACOR =    1.200    partial core radius                                                         
   POMASS =   12.011; ZVAL   =    4.000    mass and valenz                                          
   RCORE  =    1.500    outmost cutoff radius                                                       
   RWIGS  =    1.630; RWIGS  =    0.863    wigner-seitz radius (au A)                               
   ENMAX  =  400.000; ENMIN  =  300.000 eV                                                          
   ICORE  =        2    local potential                                                             
   LCOR   =        T    correct aug charges                                                         
   LPAW   =        T    paw PP                                                                      
   EAUG   =  644.873                                                                                
   DEXC   =    0.000                                                                                
   RMAX   =    1.529    core radius for proj-oper                                                   
   RAUG   =    1.300    factor for augmentation sphere                                              
   RDEP   =    1.501    radius for radial grids                                                     
   RDEPT  =    1.300    core radius for aug-charge                                                  
                                                                                                    
   Atomic configuration                                                                             
    4 entries                                                                                       
     n  l   j            E        occ.                                                              
     1  0  0.50      -273.3789   2.0000                                                             
     2  0  0.50       -13.7508   2.0000                                                             
     2  1  0.50        -5.2854   2.0000                                                             
     3  2  1.50        -5.4423   0.0000                                                             
   Description                                                                                      
     l       E           TYP  RCUT    TYP  RCUT                                                     
     0    -13.7508458     23  1.200                                                                 
     0     -8.2022199     23  1.200                                                                 
     1     -5.2854383     23  1.500                                                                 
     1     34.0145650     23  1.500                                                                 
     2     -5.4423304      7  1.500                                                                 
  local pseudopotential read in
  partial core-charges read in
  partial kinetic energy density read in
  atomic valenz-charges read in
  non local Contribution for L=           0  read in
    real space projection operators read in
  non local Contribution for L=           0  read in
    real space projection operators read in
  non local Contribution for L=           1  read in
    real space projection operators read in
  non local Contribution for L=           1  read in
    real space projection operators read in
    PAW grid and wavefunctions read in
 
   number of l-projection  operators is LMAX  =           4
   number of lm-projection operators is LMMAX =           8
 
 POTCAR:    PAW_PBE H 15Jun2001                   
   SHA256 =  030f79b5d3ab3cf0e668861823c8fb652ff669f3e15e46930bd03bfd63a607b6 H/POTCAR              
   COPYR  = (c) Copyright 15Jun2001 Georg Kresse                                                    
   COPYR  = This file is part of the software VASP. Any use, copying, and all other rights are regul
   COPYR  = If you do not have a valid VASP license, you may not use, copy or distribute this file. 
   VRHFIN =H: ultrasoft test                                                                        
   LEXCH  = PE                                                                                      
   EATOM  =    12.4884 eV,    0.9179 Ry                                                             
                                                                                                    
   TITEL  = PAW_PBE H 15Jun2001                                                                     
   LULTRA =        F    use ultrasoft PP ?                                                          
   IUNSCR =        0    unscreen: 0-lin 1-nonlin 2-no                                               
   RPACOR =    0.000    partial core radius                                                         
   POMASS =    1.000; ZVAL   =    1.000    mass and valenz                                          
   RCORE  =    1.100    outmost cutoff radius                                                       
   RWIGS  =    0.700; RWIGS  =    0.370    wigner-seitz radius (au A)                               
   ENMAX  =  250.000; ENMIN  =  200.000 eV                                                          
   RCLOC  =    0.701    cutoff for local pot                                                        
   LCOR   =        T    correct aug charges                                                         
   LPAW   =        T    paw PP                                                                      
   EAUG   =  400.000                                                                                
   RMAX   =    1.123    core radius for proj-oper                                                   
   RAUG   =    1.200    factor for augmentation sphere                                              
   RDEP   =    1.112    radius for radial grids                                                     
   RDEPT  =    0.926    core radius for aug-charge                                                  
                                                                                                    
   Atomic configuration                                                                             
    2 entries                                                                                       
     n  l   j            E        occ.                                                              
     1  0  0.50        -6.4927   1.0000                                                             
     2  1  0.50        -3.4015   0.0000                                                             
   Description                                                                                      
     l       E           TYP  RCUT    TYP  RCUT                                                     
     0     -6.4927494     23  1.100                                                                 
     0      6.8029130     23  1.100                                                                 
     1     -4.0817478     23  1.100                                                                 
  local pseudopotential read in
  atomic valenz-charges read in
  non local Contribution for L=           0  read in
    real space projection operators read in
  non local Contribution for L=           0  read in
    real space projection operators read in
  non local Contribution for L=           1  read in
    real space projection operators read in
    PAW grid and wavefunctions read in
 
   number of l-projection  operators is LMAX  =           3
   number of lm-projection operators is LMMAX =           5
 
 POTCAR:    PAW_PBE S 06Sep2000                   
   SHA256 =  0fc7481fb0695f01bdc6462160264c5c84044ae9ec85a907d398b887a2bc3132 S/POTCAR              
   COPYR  = (c) Copyright 06Sep2000 Georg Kresse                                                    
   COPYR  = This file is part of the software VASP. Any use, copying, and all other rights are regul
   COPYR  = If you do not have a valid VASP license, you may not use, copy or distribute this file. 
   VRHFIN =S : s2p4                                                                                 
   LEXCH  = PE                                                                                      
   EATOM  =   276.8230 eV,   20.3459 Ry                                                             
                                                                                                    
   TITEL  = PAW_PBE S 06Sep2000                                                                     
   LULTRA =        F    use ultrasoft PP ?                                                          
   IUNSCR =        1    unscreen: 0-lin 1-nonlin 2-no                                               
   RPACOR =    1.500    partial core radius                                                         
   POMASS =   32.066; ZVAL   =    6.000    mass and valenz                                          
   RCORE  =    1.900    outmost cutoff radius                                                       
   RWIGS  =    2.200; RWIGS  =    1.164    wigner-seitz radius (au A)                               
   ENMAX  =  258.689; ENMIN  =  194.016 eV                                                          
   ICORE  =        2    local potential                                                             
   LCOR   =        T    correct aug charges                                                         
   LPAW   =        T    paw PP                                                                      
   EAUG   =  335.092                                                                                
   DEXC   =    0.000                                                                                
   RMAX   =    1.942    core radius for proj-oper                                                   
   RAUG   =    1.300    factor for augmentation sphere                                              
   RDEP   =    1.954    radius for radial grids                                                     
   RDEPT  =    1.744    core radius for aug-charge                                                  
                                                                                                    
   Atomic configuration                                                                             
    6 entries                                                                                       
     n  l   j            E        occ.                                                              
     1  0  0.50     -2405.8406   2.0000                                                             
     2  0  0.50      -211.7007   2.0000                                                             
     2  1  1.50      -156.4958   6.0000                                                             
     3  0  0.50       -17.2562   2.0000                                                             
     3  1  0.50        -7.0085   4.0000                                                             
     3  2  1.50        -6.8029   0.0000                                                             
   Description                                                                                      
     l       E           TYP  RCUT    TYP  RCUT                                                     
     0    -17.2561641     23  1.900                                                                 
     0    -15.8743224     23  1.900                                                                 
     1     -7.0085400     23  1.900                                                                 
     1     -2.7779785     23  1.900                                                                 
     2     -6.8029130     23  1.900                                                                 
  local pseudopotential read in
  partial core-charges read in
  partial kinetic energy density read in
  atomic valenz-charges read in
  non local Contribution for L=           0  read in
    real space projection operators read in
  non local Contribution for L=           0  read in
    real space projection operators read in
  non local Contribution for L=           1  read in
    real space projection operators read in
  non local Contribution for L=           1  read in
    real space projection operators read in
    PAW grid and wavefunctions read in
 
   number of l-projection  operators is LMAX  =           4
   number of lm-projection operators is LMMAX =           8
 
 Optimization of the real space projectors (new method)

 maximal supplied QI-value         = 25.13
 optimisation between [QCUT,QGAM] = [ 12.32, 24.88] = [ 42.47,173.37] Ry 
 Optimized for a Real-space Cutoff    1.06 Angstroem

   l    n(q)    QCUT    max X(q) W(low)/X(q) W(high)/X(q)  e(spline) 
   0      8    12.315   115.676    0.34E-03    0.18E-03    0.23E-06
   0      8    12.315    87.132    0.34E-03    0.18E-03    0.22E-06
   1      7    12.315     4.429    0.45E-03    0.12E-03    0.18E-06
   1      7    12.315     2.733    0.35E-03    0.97E-04    0.15E-06
 Optimization of the real space projectors (new method)

 maximal supplied QI-value         = 34.20
 optimisation between [QCUT,QGAM] = [ 12.31, 24.97] = [ 42.46,174.58] Ry 
 Optimized for a Real-space Cutoff    1.00 Angstroem

   l    n(q)    QCUT    max X(q) W(low)/X(q) W(high)/X(q)  e(spline) 
   0      7    12.313    19.460    0.14E-03    0.42E-03    0.16E-06
   0      7    12.313    12.209    0.12E-03    0.40E-03    0.16E-06
   1      7    12.313     4.655    0.33E-03    0.59E-03    0.89E-07
 Optimization of the real space projectors (new method)

 maximal supplied QI-value         = 19.84
 optimisation between [QCUT,QGAM] = [ 12.50, 25.00] = [ 43.76,175.03] Ry 
 Optimized for a Real-space Cutoff    1.06 Angstroem

   l    n(q)    QCUT    max X(q) W(low)/X(q) W(high)/X(q)  e(spline) 
   0      8    12.501   187.594    0.26E-03    0.17E-03    0.97E-07
   0      8    12.501   164.243    0.26E-03    0.17E-03    0.96E-07
   1      7    12.501    67.533    0.50E-03    0.61E-03    0.91E-07
   1      7    12.501    50.729    0.48E-03    0.60E-03    0.90E-07
 -----------------------------------------------------------------------------
|                                                                             |
|               ----> ADVICE to this user running VASP <----                  |
|                                                                             |
|     You enforced a specific xc type in the INCAR file but a different       |
|     type was found in the POTCAR file.                                      |
|     I HOPE YOU KNOW WHAT YOU ARE DOING!                                     |
|                                                                             |
 -----------------------------------------------------------------------------

  PAW_PBE C 08Apr2002                   :
 energy of atom  1       EATOM= -147.1560
 kinetic energy error for atom=    0.0057 (will be added to EATOM!!)
  PAW_PBE H 15Jun2001                   :
 energy of atom  2       EATOM=  -12.4884
 kinetic energy error for atom=    0.0004 (will be added to EATOM!!)
  PAW_PBE S 06Sep2000                   :
 energy of atom  3       EATOM= -276.8230
 kinetic energy error for atom=    0.0009 (will be added to EATOM!!)
 
 
 POSCAR:  C  H  S
  positions in direct lattice
  velocities in cartesian coordinates
 exchange correlation table for  LEXCH =       43
   RHO(1)=    0.500       N(1)  =     2000
   RHO(2)=  100.500       N(2)  =     4000

 VTST: version 4.1, (05/19/21)

 CHAIN: initializing optimizer
 
 OPT: Using VASP Conjugate-Gradient optimizer
 CHAIN: Read ICHAIN            0
 
 POSCAR:  C  H  S
  positions in direct lattice
  velocities in cartesian coordinates
 


--------------------------------------------------------------------------------------------------------


 ion  position               nearest neighbor table
   1  0.501  0.499  0.475-   6 1.40   2 1.40  16 1.77
   2  0.544  0.587  0.494-  11 1.09   4 1.39   1 1.40
   3  0.455  0.412  0.532-   9 1.09   6 1.39   5 1.40
   4  0.543  0.587  0.532-   8 1.09   2 1.39   5 1.40
   5  0.498  0.500  0.552-   3 1.40   4 1.40   7 1.51
   6  0.456  0.411  0.494-  10 1.09   3 1.39   1 1.40
   7  0.498  0.500  0.594-  15 1.10  14 1.10  13 1.10   5 1.51
   8  0.577  0.657  0.547-   4 1.09
   9  0.420  0.342  0.547-   3 1.09
  10  0.422  0.341  0.480-   6 1.09
  11  0.579  0.657  0.479-   2 1.09
  12  0.454  0.407  0.420-  16 1.35
  13  0.564  0.502  0.605-   7 1.10
  14  0.497  0.564  0.604-   7 1.10
  15  0.434  0.434  0.605-   7 1.10
  16  0.503  0.504  0.426-  12 1.35   1 1.77
 
  LATTYP: Found a hexagonal cell.
 ALAT       =    15.8227970706
 C/A-ratio  =     2.3015724012
  
  Lattice vectors:
  
 A1 = (   7.9113985353, -13.7029442220,   0.0000000000)
 A2 = (   7.9113985353,  13.7029442220,   0.0000000000)
 A3 = (   0.0000000000,   0.0000000000,  36.4173130480)


Analysis of symmetry for initial positions (statically):
=====================================================================
 Subroutine PRICEL returns:
 Original cell was already a primitive cell.
 

 Routine SETGRP: Setting up the symmetry group for a 
 hexagonal supercell.


 Subroutine GETGRP returns: Found  1 space group operations
 (whereof  1 operations were pure point group operations)
 out of a pool of 24 trial point group operations.


The static configuration has the point symmetry C_1 .


Analysis of symmetry for dynamics (positions and initial velocities):
=====================================================================
 Subroutine PRICEL returns:
 Original cell was already a primitive cell.
 

 Routine SETGRP: Setting up the symmetry group for a 
 hexagonal supercell.


 Subroutine GETGRP returns: Found  1 space group operations
 (whereof  1 operations were pure point group operations)
 out of a pool of 24 trial point group operations.


The dynamic configuration has the point symmetry C_1 .


Analysis of structural, dynamic, and magnetic symmetry:
=====================================================================
 Subroutine PRICEL returns:
 Original cell was already a primitive cell.
 

 Routine SETGRP: Setting up the symmetry group for a 
 hexagonal supercell.


 Subroutine GETGRP returns: Found  1 space group operations
 (whereof  1 operations were pure point group operations)
 out of a pool of 24 trial point group operations.


The overall configuration has the point symmetry C_1 .


 Subroutine INISYM returns: Found  1 space group operations
 (whereof  1 operations are pure point group operations),
 and found     1 'primitive' translations


----------------------------------------------------------------------------------------

                                     Primitive cell                                     

  volume of cell :    7895.9620

  direct lattice vectors                    reciprocal lattice vectors
     7.911398535-13.702944222  0.000000000     0.063199951 -0.036488509  0.000000000
     7.911398535 13.702944222  0.000000000     0.063199951  0.036488509  0.000000000
     0.000000000  0.000000000 36.417313048     0.000000000  0.000000000  0.027459467

  length of vectors
    15.822797071 15.822797071 36.417313048     0.072977017  0.072977017  0.027459467

  position of ions in fractional coordinates (direct lattice)
     0.500561346  0.498951208  0.474557422
     0.544337809  0.587271242  0.494019053
     0.455268034  0.411972423  0.532481387
     0.542785817  0.586925375  0.532286505
     0.498181800  0.499580220  0.552312915
     0.456200355  0.411041823  0.494198202
     0.497958349  0.499994116  0.593666117
     0.576950005  0.656614652  0.546927016
     0.419826063  0.342450228  0.547237442
     0.421784942  0.341449646  0.479565305
     0.579331326  0.656579525  0.479173683
     0.454276413  0.407246833  0.420161224
     0.563855503  0.501997302  0.604743480
     0.496609589  0.564227202  0.604493367
     0.434337875  0.434228586  0.604701150
     0.503426310  0.504475522  0.426076067

  ion indices of the primitive-cell ions
   primitive index   ion index
                 1           1
                 2           2
                 3           3
                 4           4
                 5           5
                 6           6
                 7           7
                 8           8
                 9           9
                10          10
                11          11
                12          12
                13          13
                14          14
                15          15
                16          16

----------------------------------------------------------------------------------------

 
 
 KPOINTS: K-Points                                

Automatic generation of k-mesh.
 Grid dimensions read from file:
 generate k-points for:    1    1    1

 Generating k-lattice:

  Cartesian coordinates                     Fractional coordinates (reciprocal lattice)
     0.063199951 -0.036488509  0.000000000     1.000000000  0.000000000  0.000000000
     0.063199951  0.036488509  0.000000000    -0.000000000  1.000000000  0.000000000
     0.000000000  0.000000000  0.027459467     0.000000000  0.000000000  1.000000000

  Length of vectors
     0.072977017  0.072977017  0.027459467

  Shift w.r.t. Gamma in fractional coordinates (k-lattice)
     0.000000000  0.000000000  0.000000000

 
 Subroutine IBZKPT returns following result:
 ===========================================
 
 Found      1 irreducible k-points:
 
 Following reciprocal coordinates:
            Coordinates               Weight
  0.000000  0.000000  0.000000      1.000000
 
 Following cartesian coordinates:
            Coordinates               Weight
  0.000000  0.000000  0.000000      1.000000
 


--------------------------------------------------------------------------------------------------------




 Dimension of arrays:
   k-points           NKPTS =      1   k-points in BZ     NKDIM =      1   number of bands    NBANDS=     48
   number of dos      NEDOS =    301   number of ions     NIONS =     16
   non local maximal  LDIM  =      4   non local SUM 2l+1 LMDIM =      8
   total plane-waves  NPLWV = ******
   max r-space proj   IRMAX =   1363   max aug-charges    IRDMAX=   8435
   dimension x,y,z NGX =    96 NGY =   96 NGZ =  224
   dimension x,y,z NGXF=   192 NGYF=  192 NGZF=  448
   support grid    NGXF=   192 NGYF=  192 NGZF=  448
   ions per type =               7   8   1
   NGX,Y,Z   is equivalent  to a cutoff of  10.09, 10.09, 10.23 a.u.
   NGXF,Y,Z  is equivalent  to a cutoff of  20.17, 20.17, 20.45 a.u.

 SYSTEM =  unknown system                          
 POSCAR =   C  H  S                                

 Startparameter for this run:
   NWRITE =      2    write-flag & timer
   PREC   = normal    normal or accurate (medium, high low for compatibility)
   ISTART =      0    job   : 0-new  1-cont  2-samecut
   ICHARG =      2    charge: 1-file 2-atom 10-const
   ISPIN  =      2    spin polarized calculation?
   LNONCOLLINEAR =      F non collinear calculations
   LSORBIT =      F    spin-orbit coupling
   INIWAV =      1    electr: 0-lowe 1-rand  2-diag
   LASPH  =      T    aspherical Exc in radial PAW
 Electronic Relaxation 1
   ENCUT  =  600.0 eV  44.10 Ry    6.64 a.u.  31.60 31.60 72.73*2*pi/ulx,y,z
   ENINI  =  600.0     initial cutoff
   ENAUG  =  644.9 eV  augmentation charge cutoff
   NELM   =   2000;   NELMIN=  2; NELMDL=  0     # of ELM steps 
   EDIFF  = 0.1E-05   stopping-criterion for ELM
   LREAL  =      T    real-space projection
   NLSPLINE    = F    spline interpolate recip. space projectors
   LCOMPAT=      F    compatible to vasp.4.4
   GGA_COMPAT  = T    GGA compatible to vasp.4.4-vasp.4.6
   LMAXPAW     = -100 max onsite density
   LMAXMIX     =    2 max onsite mixed and CHGCAR
   VOSKOWN=      0    Vosko Wilk Nusair interpolation
   ROPT   =   -0.00050  -0.00050  -0.00050
 Ionic relaxation
   EDIFFG = -.1E-01   stopping-criterion for IOM
   NSW    =   5000    number of steps for IOM
   NBLOCK =      1;   KBLOCK =   5000    inner block; outer block 
   IBRION =      2    ionic relax: 0-MD 1-quasi-New 2-CG
   NFREE  =      1    steps in history (QN), initial steepest desc. (CG)
   ISIF   =      2    stress and relaxation
   IWAVPR =     11    prediction:  0-non 1-charg 2-wave 3-comb
   ISYM   =      2    0-nonsym 1-usesym 2-fastsym
   LCORR  =      T    Harris-Foulkes like correction to forces

   POTIM  = 0.5000    time-step for ionic-motion
   TEIN   =    0.0    initial temperature
   TEBEG  =    0.0;   TEEND  =   0.0 temperature during run
   SMASS  =  -3.00    Nose mass-parameter (am)
   estimated Nose-frequenzy (Omega)   =  0.10E-29 period in steps = 0.13E+47 mass=  -0.572E-26a.u.
   SCALEE = 1.0000    scale energy and forces
   NPACO  =    256;   APACO  = 10.0  distance and # of slots for P.C.
   PSTRESS=    0.0 pullay stress

  Mass of Ions in am
   POMASS =  12.01  1.00 32.07
  Ionic Valenz
   ZVAL   =   4.00  1.00  6.00
  Atomic Wigner-Seitz radii
   RWIGS  =  -1.00 -1.00 -1.00
  virtual crystal weights 
   VCA    =   1.00  1.00  1.00
   NELECT =      42.0000    total number of electrons
   NUPDOWN=      -1.0000    fix difference up-down

 DOS related values:
   EMIN   =  10.00;   EMAX   =-10.00  energy-range for DOS
   EFERMI =   0.00
   ISMEAR =     0;   SIGMA  =   0.05  broadening in eV -4-tet -1-fermi 0-gaus

 Electronic relaxation 2 (details)
   IALGO  =     38    algorithm
   LDIAG  =      T    sub-space diagonalisation (order eigenvalues)
   LSUBROT=      F    optimize rotation matrix (better conditioning)
   TURBO    =      0    0=normal 1=particle mesh
   IRESTART =      0    0=no restart 2=restart with 2 vectors
   NREBOOT  =      0    no. of reboots
   NMIN     =      0    reboot dimension
   EREF     =   0.00    reference energy to select bands
   IMIX   =      4    mixing-type and parameters
     AMIX     =   0.40;   BMIX     =  1.00
     AMIX_MAG =   1.60;   BMIX_MAG =  1.00
     AMIN     =   0.10
     WC   =   100.;   INIMIX=   1;  MIXPRE=   1;  MAXMIX= -45

 Intra band minimization:
   WEIMIN = 0.0010     energy-eigenvalue tresh-hold
   EBREAK =  0.52E-08  absolut break condition
   DEPER  =   0.30     relativ break condition  

   TIME   =   0.40     timestep for ELM

  volume/ion in A,a.u.               =     493.50      3330.29
  Fermi-wavevector in a.u.,A,eV,Ry     =   0.285774  0.540035  1.111145  0.081667
  Thomas-Fermi vector in A             =   1.139896
 
 Write flags
   LWAVE        =      F    write WAVECAR
   LDOWNSAMPLE  =      F    k-point downsampling of WAVECAR
   LCHARG       =      F    write CHGCAR
   LVTOT        =      F    write LOCPOT, total local potential
   LVHAR        =      F    write LOCPOT, Hartree potential only
   LELF         =      F    write electronic localiz. function (ELF)
   LORBIT       =      0    0 simple, 1 ext, 2 COOP (PROOUT), +10 PAW based schemes


 Dipole corrections
   LMONO  =      F    monopole corrections only (constant potential shift)
   LDIPOL =      F    correct potential (dipole corrections)
   IDIPOL =      0    1-x, 2-y, 3-z, 4-all directions 
   EPSILON=  1.0000000 bulk dielectric constant

 Exchange correlation treatment:
   GGA     =    MK    GGA type
   LEXCH   =    43    internal setting for exchange type
   LIBXC   =     F    Libxc                    
   VOSKOWN =     0    Vosko Wilk Nusair interpolation
   LHFCALC =     F    Hartree Fock is set to
   LHFONE  =     F    Hartree Fock one center treatment
   AEXX    =    0.0000 exact exchange contribution

 vdW DFT:
   LUSE_VDW   =     T    switch on vdW DFT
   Zab_VDW    =-.8491    correlation parameter
   PARAM1     =0.1234
   PARAM2     =1.0000
   PARAM3     =0.0000
   -- rVV10 --
   BPARAM     = 6.3000
   CPARAM     = 0.0093

 Linear response parameters
   LEPSILON=     F    determine dielectric tensor
   LRPA    =     F    only Hartree local field effects (RPA)
   LNABLA  =     F    use nabla operator in PAW spheres
   LVEL    =     F    velocity operator in full k-point grid
   CSHIFT  =0.1000    complex shift for real part using Kramers Kronig
   OMEGAMAX=  -1.0    maximum frequency
   DEG_THRESHOLD= 0.2000000E-02 threshold for treating states as degnerate
   RTIME   =   -0.100 relaxation time in fs
  (WPLASMAI=    0.000 imaginary part of plasma frequency in eV, 0.658/RTIME)
   DFIELD  = 0.0000000 0.0000000 0.0000000 field for delta impulse in time
 
  Optional k-point grid parameters
   LKPOINTS_OPT  =     F    use optional k-point grid
   KPOINTS_OPT_MODE=     1    mode for optional k-point grid
 
 Orbital magnetization related:
   ORBITALMAG=     F  switch on orbital magnetization
   LCHIMAG   =     F  perturbation theory with respect to B field
   DQ        =  0.001000  dq finite difference perturbation B field
   LLRAUG    =     F  two centre corrections for induced B field



--------------------------------------------------------------------------------------------------------


 conjugate gradient relaxation of ions
 charge density and potential will be updated during run
 spin polarized calculation
 Variant of blocked Davidson
 Davidson routine will perform the subspace rotation
 perform sub-space diagonalisation
    after iterative eigenvector-optimisation
 modified Broyden-mixing scheme, WC =      100.0
 initial mixing is a Kerker type mixing with AMIX =  0.4000 and BMIX =      1.0000
 Hartree-type preconditioning will be used
 using additional bands           27
 real space projection scheme for non local part
 use partial core corrections
 calculate Harris-corrections to forces 
   (improved forces if not selfconsistent)
 use gradient corrections 
 use of overlap-Matrix (Vanderbilt PP)
 Gauss-broadening in eV      SIGMA  =   0.05


--------------------------------------------------------------------------------------------------------


  energy-cutoff  :      600.00
  volume of cell :     7895.96
      direct lattice vectors                 reciprocal lattice vectors
     7.911398535-13.702944222  0.000000000     0.063199951 -0.036488509  0.000000000
     7.911398535 13.702944222  0.000000000     0.063199951  0.036488509  0.000000000
     0.000000000  0.000000000 36.417313048     0.000000000  0.000000000  0.027459467

  length of vectors
    15.822797071 15.822797071 36.417313048     0.072977017  0.072977017  0.027459467


 
 k-points in units of 2pi/SCALE and weight: K-Points                                
   0.00000000  0.00000000  0.00000000       1.000
 
 k-points in reciprocal lattice and weights: K-Points                                
   0.00000000  0.00000000  0.00000000       1.000
 
 position of ions in fractional coordinates (direct lattice) 
   0.50056135  0.49895121  0.47455742
   0.54433781  0.58727124  0.49401905
   0.45526803  0.41197242  0.53248139
   0.54278582  0.58692537  0.53228650
   0.49818180  0.49958022  0.55231292
   0.45620035  0.41104182  0.49419820
   0.49795835  0.49999412  0.59366612
   0.57695001  0.65661465  0.54692702
   0.41982606  0.34245023  0.54723744
   0.42178494  0.34144965  0.47956530
   0.57933133  0.65657952  0.47917368
   0.45427641  0.40724683  0.42016122
   0.56385550  0.50199730  0.60474348
   0.49660959  0.56422720  0.60449337
   0.43433788  0.43422859  0.60470115
   0.50342631  0.50447552  0.42607607
 
 position of ions in cartesian coordinates  (Angst):
   7.90754215 -0.02206363 17.28210619
   8.95261019  0.58831443 17.99084650
   6.86108489 -0.59327734 19.39154135
   8.93759547  0.60484190 19.38444427
   7.89369298  0.01916246 20.11375233
   6.86109849 -0.61880485 17.99737062
   7.89519967  0.02789600 21.61972484
   9.75922163  1.09164022 19.91761234
   6.03067153 -1.06027676 19.92891725
   6.03825300 -1.10083008 17.46447983
   9.77778329  1.05852776 17.45021801
   6.81585375 -0.64444371 15.30114283
   8.43238632 -0.84763947 22.02313262
   8.39270263  0.92656037 22.01402419
   6.87157543 -0.00149758 22.02159108
   7.97391308  0.01437730 15.51654553
 


--------------------------------------------------------------------------------------------------------


 use parallel FFT for orbitals z direction half grid
 k-point   1 :   0.0000 0.0000 0.0000  plane waves:  131815

 maximum and minimum number of plane-waves per node :     32957    32949

 maximum number of plane-waves:    131815
 maximum index in each direction: 
   IXMAX=   31   IYMAX=   31   IZMAX=   72
   IXMIN=  -31   IYMIN=  -31   IZMIN=    0


 real space projection operators:
  total allocation   :        972.46 KBytes
  max/ min on nodes  :        247.41        240.70


 parallel 3D FFT for wavefunctions:
    minimum data exchange during FFTs selected (reduces bandwidth)
 parallel 3D FFT for charge:
    minimum data exchange during FFTs selected (reduces bandwidth)


 total amount of memory used by VASP MPI-rank0   105853. kBytes
=======================================================================

   base      :      30000. kBytes
   nonlr-proj:        295. kBytes
   fftplans  :      16881. kBytes
   grid      :      56555. kBytes
   one-center:         12. kBytes
   wavefun   :       2110. kBytes
 
     INWAV:  cpu time      0.0005: real time      0.0007
 Broyden mixing: mesh for mixing (old mesh)
   NGX = 63   NGY = 63   NGZ =145
  (NGX  =192   NGY  =192   NGZ  =448)
  gives a total of 575505 points

 initial charge density was supplied:
 charge density of overlapping atoms calculated
 number of electron      42.0000000 magnetization      16.0000000
 keeping initial charge density in first step


--------------------------------------------------------------------------------------------------------


 Maximum index for non-local projection operator          317
 Maximum index for augmentation-charges          444 (set IRDMAX)


--------------------------------------------------------------------------------------------------------


 First call to EWALD:  gamma=   0.089
 Maximum number of real-space cells 4x 4x 2
 Maximum number of reciprocal cells 2x 2x 5

    FEWALD:  cpu time      0.0082: real time      0.0082


--------------------------------------- Iteration      1(   1)  ---------------------------------------


vdW kernel read from vdw_kernel.bindat
  0.0000  0.2424  0.5071  0.7962  1.1119  1.4567  1.8333  2.2446  2.6937  3.1842
  3.7199  4.3049  4.9438  5.6415  6.4036  7.2358  8.1446  9.1372 10.2212 11.4050
 12.6979 14.1099 15.6519 17.3360 19.1751 21.1837 23.3773 25.7729 28.3892 31.2465
 34.3669 37.7748 41.4965 45.5611 50.0000
 
    POTLOK:  cpu time      9.2479: real time      9.3482
    SETDIJ:  cpu time      1.2782: real time      1.2798
     EDDAV:  cpu time      1.2361: real time      1.2925
       DOS:  cpu time      0.0062: real time      0.0063
    --------------------------------------------
      LOOP:  cpu time     11.7685: real time     11.9269

 eigenvalue-minimisations  :   288
 total energy-change (2. order) : 0.2219567E+03  (-0.1125144E+04)
 number of electron      42.0000000 magnetization      16.0000000
 augmentation part       42.0000000 magnetization      16.0000000

 Free energy of the ion-electron system (eV)
  ---------------------------------------------------
  alpha Z        PSCENC =         1.00215234
  Ewald energy   TEWEN  =      3451.00526145
  -Hartree energ DENC   =     -4395.01709233
  -exchange      EXHF   =         0.00000000
  -V(xc)+E(xc)   XCENC  =       125.45962098
  PAW double counting   =       993.04500190     -991.12224123
  entropy T*S    EENTRO =        -0.01821000
  eigenvalues    EBANDS =      -377.65928894
  atomic energy  EATOM  =      1415.26145558
  Solvation  Ediel_sol  =         0.00000000
  ---------------------------------------------------
  free energy    TOTEN  =       221.95665975 eV

  energy without entropy =      221.97486976  energy(sigma->0) =      221.96576475


--------------------------------------------------------------------------------------------------------




--------------------------------------- Iteration      1(   2)  ---------------------------------------


     EDDAV:  cpu time      1.2962: real time      1.2986
       DOS:  cpu time      0.0009: real time      0.0009
    --------------------------------------------
      LOOP:  cpu time      1.2974: real time      1.2997

 eigenvalue-minimisations  :   360
 total energy-change (2. order) :-0.2677098E+03  (-0.2618989E+03)
 number of electron      42.0000000 magnetization      16.0000000
 augmentation part       42.0000000 magnetization      16.0000000

 Free energy of the ion-electron system (eV)
  ---------------------------------------------------
  alpha Z        PSCENC =         1.00215234
  Ewald energy   TEWEN  =      3451.00526145
  -Hartree energ DENC   =     -4395.01709233
  -exchange      EXHF   =         0.00000000
  -V(xc)+E(xc)   XCENC  =       125.45962098
  PAW double counting   =       993.04500190     -991.12224123
  entropy T*S    EENTRO =        -0.00000000
  eigenvalues    EBANDS =      -645.38727620
  atomic energy  EATOM  =      1415.26145558
  Solvation  Ediel_sol  =         0.00000000
  ---------------------------------------------------
  free energy    TOTEN  =       -45.75311750 eV

  energy without entropy =      -45.75311750  energy(sigma->0) =      -45.75311750


--------------------------------------------------------------------------------------------------------




--------------------------------------- Iteration      1(   3)  ---------------------------------------


     EDDAV:  cpu time      1.1767: real time      1.1780
       DOS:  cpu time      0.0009: real time      0.0009
    --------------------------------------------
      LOOP:  cpu time      1.1774: real time      1.1786

 eigenvalue-minimisations  :   312
 total energy-change (2. order) :-0.3672821E+02  (-0.3653374E+02)
 number of electron      42.0000000 magnetization      16.0000000
 augmentation part       42.0000000 magnetization      16.0000000

 Free energy of the ion-electron system (eV)
  ---------------------------------------------------
  alpha Z        PSCENC =         1.00215234
  Ewald energy   TEWEN  =      3451.00526145
  -Hartree energ DENC   =     -4395.01709233
  -exchange      EXHF   =         0.00000000
  -V(xc)+E(xc)   XCENC  =       125.45962098
  PAW double counting   =       993.04500190     -991.12224123
  entropy T*S    EENTRO =        -0.00000000
  eigenvalues    EBANDS =      -682.11548802
  atomic energy  EATOM  =      1415.26145558
  Solvation  Ediel_sol  =         0.00000000
  ---------------------------------------------------
  free energy    TOTEN  =       -82.48132933 eV

  energy without entropy =      -82.48132933  energy(sigma->0) =      -82.48132933


--------------------------------------------------------------------------------------------------------




--------------------------------------- Iteration      1(   4)  ---------------------------------------


     EDDAV:  cpu time      1.1784: real time      1.1794
       DOS:  cpu time      0.0008: real time      0.0008
    --------------------------------------------
      LOOP:  cpu time      1.1792: real time      1.1802

 eigenvalue-minimisations  :   312
 total energy-change (2. order) :-0.1175924E+01  (-0.1174138E+01)
 number of electron      42.0000000 magnetization      16.0000000
 augmentation part       42.0000000 magnetization      16.0000000

 Free energy of the ion-electron system (eV)
  ---------------------------------------------------
  alpha Z        PSCENC =         1.00215234
  Ewald energy   TEWEN  =      3451.00526145
  -Hartree energ DENC   =     -4395.01709233
  -exchange      EXHF   =         0.00000000
  -V(xc)+E(xc)   XCENC  =       125.45962098
  PAW double counting   =       993.04500190     -991.12224123
  entropy T*S    EENTRO =        -0.00000000
  eigenvalues    EBANDS =      -683.29141154
  atomic energy  EATOM  =      1415.26145558
  Solvation  Ediel_sol  =         0.00000000
  ---------------------------------------------------
  free energy    TOTEN  =       -83.65725284 eV

  energy without entropy =      -83.65725284  energy(sigma->0) =      -83.65725284


--------------------------------------------------------------------------------------------------------




--------------------------------------- Iteration      1(   5)  ---------------------------------------


     EDDAV:  cpu time      0.8599: real time      0.8609
       DOS:  cpu time      0.0009: real time      0.0009
    CHARGE:  cpu time      0.2190: real time      0.2192
    MIXING:  cpu time      0.0363: real time      0.0369
    --------------------------------------------
      LOOP:  cpu time      1.1162: real time      1.1179

 eigenvalue-minimisations  :   216
 total energy-change (2. order) :-0.9814703E-02  (-0.9812518E-02)
 number of electron      42.0000013 magnetization      15.2599779
 augmentation part        0.1542790 magnetization      15.2844662

 Broyden mixing:
  rms(total) = 0.27658E+01    rms(broyden)= 0.27657E+01
  rms(prec ) = 0.27980E+01
  weight for this iteration     100.00

 Free energy of the ion-electron system (eV)
  ---------------------------------------------------
  alpha Z        PSCENC =         1.00215234
  Ewald energy   TEWEN  =      3451.00526145
  -Hartree energ DENC   =     -4395.01709233
  -exchange      EXHF   =         0.00000000
  -V(xc)+E(xc)   XCENC  =       125.45962098
  PAW double counting   =       993.04500190     -991.12224123
  entropy T*S    EENTRO =        -0.00000000
  eigenvalues    EBANDS =      -683.30122624
  atomic energy  EATOM  =      1415.26145558
  Solvation  Ediel_sol  =         0.00000000
  ---------------------------------------------------
  free energy    TOTEN  =       -83.66706755 eV

  energy without entropy =      -83.66706755  energy(sigma->0) =      -83.66706755


--------------------------------------------------------------------------------------------------------




--------------------------------------- Iteration      1(   6)  ---------------------------------------


    POTLOK:  cpu time      8.0261: real time      8.0341
    SETDIJ:  cpu time      1.3036: real time      1.3052
     EDDAV:  cpu time      1.0486: real time      1.0497
       DOS:  cpu time      0.0011: real time      0.0011
    CHARGE:  cpu time      0.1649: real time      0.1649
    MIXING:  cpu time      0.0228: real time      0.0309
    --------------------------------------------
      LOOP:  cpu time     10.5671: real time     10.5860

 eigenvalue-minimisations  :   264
 total energy-change (2. order) : 0.3680592E+01  (-0.2971011E+01)
 number of electron      42.0000013 magnetization      14.4937257
 augmentation part        0.0692886 magnetization      14.4784506

 Broyden mixing:
  rms(total) = 0.14112E+01    rms(broyden)= 0.14112E+01
  rms(prec ) = 0.14236E+01
  weight for this iteration     100.00

 eigenvalues of (default mixing * dielectric matrix)
  average eigenvalue GAMMA=   0.9120
  0.9120

 Free energy of the ion-electron system (eV)
  ---------------------------------------------------
  alpha Z        PSCENC =         1.00215234
  Ewald energy   TEWEN  =      3451.00526145
  -Hartree energ DENC   =     -4477.05171430
  -exchange      EXHF   =         0.00000000
  -V(xc)+E(xc)   XCENC  =       130.33464428
  PAW double counting   =      1850.22299287    -1848.96764939
  entropy T*S    EENTRO =        -0.00000000
  eigenvalues    EBANDS =      -601.79361856
  atomic energy  EATOM  =      1415.26145558
  Solvation  Ediel_sol  =         0.00000000
  ---------------------------------------------------
  free energy    TOTEN  =       -79.98647572 eV

  energy without entropy =      -79.98647572  energy(sigma->0) =      -79.98647572


--------------------------------------------------------------------------------------------------------




--------------------------------------- Iteration      1(   7)  ---------------------------------------


    POTLOK:  cpu time      8.1071: real time      8.1154
    SETDIJ:  cpu time      1.2987: real time      1.3002
     EDDAV:  cpu time      1.2695: real time      1.2706
       DOS:  cpu time      0.0008: real time      0.0008
    CHARGE:  cpu time      0.1629: real time      0.1629
    MIXING:  cpu time      0.0218: real time      0.0234
    --------------------------------------------
      LOOP:  cpu time     10.8609: real time     10.8735

 eigenvalue-minimisations  :   336
 total energy-change (2. order) :-0.3000129E+01  (-0.6507638E+00)
 number of electron      42.0000012 magnetization      13.4724338
 augmentation part        0.0276391 magnetization      13.4693950

 Broyden mixing:
  rms(total) = 0.81230E+00    rms(broyden)= 0.81228E+00
  rms(prec ) = 0.81782E+00
  weight for this iteration     100.00

 eigenvalues of (default mixing * dielectric matrix)
  average eigenvalue GAMMA=   1.1366
  0.8046  1.4686

 Free energy of the ion-electron system (eV)
  ---------------------------------------------------
  alpha Z        PSCENC =         1.00215234
  Ewald energy   TEWEN  =      3451.00526145
  -Hartree energ DENC   =     -4519.00151176
  -exchange      EXHF   =         0.00000000
  -V(xc)+E(xc)   XCENC  =       129.33571186
  PAW double counting   =      2592.60026389    -2591.61039876
  entropy T*S    EENTRO =        -0.00000000
  eigenvalues    EBANDS =      -561.57953964
  atomic energy  EATOM  =      1415.26145558
  Solvation  Ediel_sol  =         0.00000000
  ---------------------------------------------------
  free energy    TOTEN  =       -82.98660504 eV

  energy without entropy =      -82.98660504  energy(sigma->0) =      -82.98660504


--------------------------------------------------------------------------------------------------------




--------------------------------------- Iteration      1(   8)  ---------------------------------------


    POTLOK:  cpu time      8.2473: real time      8.2553
    SETDIJ:  cpu time      1.3080: real time      1.3094
     EDDAV:  cpu time      1.2598: real time      1.2610
       DOS:  cpu time      0.0009: real time      0.0009
    CHARGE:  cpu time      0.1642: real time      0.1642
    MIXING:  cpu time      0.0220: real time      0.0228
    --------------------------------------------
      LOOP:  cpu time     11.0021: real time     11.0136

 eigenvalue-minimisations  :   336
 total energy-change (2. order) :-0.8725919E+00  (-0.8821620E-01)
 number of electron      42.0000012 magnetization      12.6181746
 augmentation part        0.0149735 magnetization      12.6166298

 Broyden mixing:
  rms(total) = 0.39850E+00    rms(broyden)= 0.39850E+00
  rms(prec ) = 0.40071E+00
  weight for this iteration     100.00

 eigenvalues of (default mixing * dielectric matrix)
  average eigenvalue GAMMA=   1.2230
  2.0519  0.9172  0.7000

 Free energy of the ion-electron system (eV)
  ---------------------------------------------------
  alpha Z        PSCENC =         1.00215234
  Ewald energy   TEWEN  =      3451.00526145
  -Hartree energ DENC   =     -4548.23077911
  -exchange      EXHF   =         0.00000000
  -V(xc)+E(xc)   XCENC  =       129.98539730
  PAW double counting   =      3357.31278328    -3356.41774282
  entropy T*S    EENTRO =        -0.00000000
  eigenvalues    EBANDS =      -533.77772500
  atomic energy  EATOM  =      1415.26145558
  Solvation  Ediel_sol  =         0.00000000
  ---------------------------------------------------
  free energy    TOTEN  =       -83.85919698 eV

  energy without entropy =      -83.85919698  energy(sigma->0) =      -83.85919698


--------------------------------------------------------------------------------------------------------




--------------------------------------- Iteration      1(   9)  ---------------------------------------


    POTLOK:  cpu time      7.9738: real time      7.9809
    SETDIJ:  cpu time      1.2999: real time      1.3014
     EDDAV:  cpu time      1.2502: real time      1.2514
       DOS:  cpu time      0.0010: real time      0.0010
    CHARGE:  cpu time      0.1761: real time      0.1761
    MIXING:  cpu time      0.0228: real time      0.0228
    --------------------------------------------
      LOOP:  cpu time     10.7237: real time     10.7336

 eigenvalue-minimisations  :   336
 total energy-change (2. order) :-0.4878176E+00  (-0.1058813E-01)
 number of electron      42.0000012 magnetization      11.8449841
 augmentation part        0.0136369 magnetization      11.8427450

 Broyden mixing:
  rms(total) = 0.25108E+00    rms(broyden)= 0.25108E+00
  rms(prec ) = 0.25243E+00
  weight for this iteration     100.00

 eigenvalues of (default mixing * dielectric matrix)
  average eigenvalue GAMMA=   1.2485
  2.2454  1.2637  0.8383  0.6465

 Free energy of the ion-electron system (eV)
  ---------------------------------------------------
  alpha Z        PSCENC =         1.00215234
  Ewald energy   TEWEN  =      3451.00526145
  -Hartree energ DENC   =     -4559.09880557
  -exchange      EXHF   =         0.00000000
  -V(xc)+E(xc)   XCENC  =       130.09979382
  PAW double counting   =      3665.75621068    -3664.83206035
  entropy T*S    EENTRO =        -0.00000000
  eigenvalues    EBANDS =      -523.54102253
  atomic energy  EATOM  =      1415.26145558
  Solvation  Ediel_sol  =         0.00000000
  ---------------------------------------------------
  free energy    TOTEN  =       -84.34701458 eV

  energy without entropy =      -84.34701458  energy(sigma->0) =      -84.34701458


--------------------------------------------------------------------------------------------------------




--------------------------------------- Iteration      1(  10)  ---------------------------------------


    POTLOK:  cpu time      7.8332: real time      7.8415
    SETDIJ:  cpu time      1.3022: real time      1.3037
     EDDAV:  cpu time      1.0333: real time      1.0342
       DOS:  cpu time      0.0010: real time      0.0011
    CHARGE:  cpu time      0.1641: real time      0.1642
    MIXING:  cpu time      0.0255: real time      0.0255
    --------------------------------------------
      LOOP:  cpu time     10.3594: real time     10.3701

 eigenvalue-minimisations  :   264
 total energy-change (2. order) :-0.3361717E+00  (-0.2824109E-02)
 number of electron      42.0000012 magnetization      10.6637505
 augmentation part        0.0152849 magnetization      10.6625733

 Broyden mixing:
  rms(total) = 0.19795E+00    rms(broyden)= 0.19795E+00
  rms(prec ) = 0.19891E+00
  weight for this iteration     100.00

 eigenvalues of (default mixing * dielectric matrix)
  average eigenvalue GAMMA=   1.2661
  2.4087  1.5483  0.8739  0.8739  0.6256

 Free energy of the ion-electron system (eV)
  ---------------------------------------------------
  alpha Z        PSCENC =         1.00215234
  Ewald energy   TEWEN  =      3451.00526145
  -Hartree energ DENC   =     -4563.71679526
  -exchange      EXHF   =         0.00000000
  -V(xc)+E(xc)   XCENC  =       129.95469690
  PAW double counting   =      3727.32761201    -3726.35824739
  entropy T*S    EENTRO =        -0.00000000
  eigenvalues    EBANDS =      -519.15932194
  atomic energy  EATOM  =      1415.26145558
  Solvation  Ediel_sol  =         0.00000000
  ---------------------------------------------------
  free energy    TOTEN  =       -84.68318630 eV

  energy without entropy =      -84.68318630  energy(sigma->0) =      -84.68318630


--------------------------------------------------------------------------------------------------------




--------------------------------------- Iteration      1(  11)  ---------------------------------------


    POTLOK:  cpu time      7.8099: real time      7.8182
    SETDIJ:  cpu time      1.3030: real time      1.3038
     EDDAV:  cpu time      0.9615: real time      0.9626
       DOS:  cpu time      0.0009: real time      0.0009
    CHARGE:  cpu time      0.1659: real time      0.1659
    MIXING:  cpu time      0.0263: real time      0.0263
    --------------------------------------------
      LOOP:  cpu time     10.2675: real time     10.2777

 eigenvalue-minimisations  :   240
 total energy-change (2. order) :-0.3144456E+00  (-0.2059477E-02)
 number of electron      42.0000012 magnetization       9.0794122
 augmentation part        0.0151918 magnetization       9.0785505

 Broyden mixing:
  rms(total) = 0.15996E+00    rms(broyden)= 0.15996E+00
  rms(prec ) = 0.16049E+00
  weight for this iteration     100.00

 eigenvalues of (default mixing * dielectric matrix)
  average eigenvalue GAMMA=   1.4114
  3.0199  2.0460  1.2061  0.8420  0.7389  0.6157

 Free energy of the ion-electron system (eV)
  ---------------------------------------------------
  alpha Z        PSCENC =         1.00215234
  Ewald energy   TEWEN  =      3451.00526145
  -Hartree energ DENC   =     -4570.02205373
  -exchange      EXHF   =         0.00000000
  -V(xc)+E(xc)   XCENC  =       129.83723435
  PAW double counting   =      3743.06632104    -3742.06135412
  entropy T*S    EENTRO =        -0.00000000
  eigenvalues    EBANDS =      -513.08664885
  atomic energy  EATOM  =      1415.26145558
  Solvation  Ediel_sol  =         0.00000000
  ---------------------------------------------------
  free energy    TOTEN  =       -84.99763193 eV

  energy without entropy =      -84.99763193  energy(sigma->0) =      -84.99763193


--------------------------------------------------------------------------------------------------------




--------------------------------------- Iteration      1(  12)  ---------------------------------------


    POTLOK:  cpu time      7.9445: real time      7.9533
    SETDIJ:  cpu time      1.3048: real time      1.3064
     EDDAV:  cpu time      1.1144: real time      1.1155
       DOS:  cpu time      0.0008: real time      0.0008
    CHARGE:  cpu time      0.1660: real time      0.1660
    MIXING:  cpu time      0.0269: real time      0.0269
    --------------------------------------------
      LOOP:  cpu time     10.5574: real time     10.5689

 eigenvalue-minimisations  :   288
 total energy-change (2. order) :-0.1905802E+00  (-0.2760070E-02)
 number of electron      42.0000012 magnetization       7.0504742
 augmentation part        0.0140023 magnetization       7.0501383

 Broyden mixing:
  rms(total) = 0.12362E+00    rms(broyden)= 0.12362E+00
  rms(prec ) = 0.12385E+00
  weight for this iteration     100.00

 eigenvalues of (default mixing * dielectric matrix)
  average eigenvalue GAMMA=   1.6538
  4.5915  2.3407  1.4753  1.0082  0.8446  0.7012  0.6151

 Free energy of the ion-electron system (eV)
  ---------------------------------------------------
  alpha Z        PSCENC =         1.00215234
  Ewald energy   TEWEN  =      3451.00526145
  -Hartree energ DENC   =     -4576.68769039
  -exchange      EXHF   =         0.00000000
  -V(xc)+E(xc)   XCENC  =       129.78502236
  PAW double counting   =      3718.01839468    -3716.99293161
  entropy T*S    EENTRO =        -0.00000000
  eigenvalues    EBANDS =      -506.57987657
  atomic energy  EATOM  =      1415.26145558
  Solvation  Ediel_sol  =         0.00000000
  ---------------------------------------------------
  free energy    TOTEN  =       -85.18821215 eV

  energy without entropy =      -85.18821215  energy(sigma->0) =      -85.18821215


--------------------------------------------------------------------------------------------------------




--------------------------------------- Iteration      1(  13)  ---------------------------------------


    POTLOK:  cpu time      7.7873: real time      7.7967
    SETDIJ:  cpu time      1.3032: real time      1.3040
     EDDAV:  cpu time      1.0954: real time      1.0977
       DOS:  cpu time      0.0012: real time      0.0012
    CHARGE:  cpu time      0.1650: real time      0.1650
    MIXING:  cpu time      0.0288: real time      0.0288
    --------------------------------------------
      LOOP:  cpu time     10.3809: real time     10.3934

 eigenvalue-minimisations  :   288
 total energy-change (2. order) :-0.1507564E+00  (-0.2128243E-02)
 number of electron      42.0000012 magnetization       5.3981353
 augmentation part        0.0129230 magnetization       5.3982065

 Broyden mixing:
  rms(total) = 0.89835E-01    rms(broyden)= 0.89835E-01
  rms(prec ) = 0.90000E-01
  weight for this iteration     100.00

 eigenvalues of (default mixing * dielectric matrix)
  average eigenvalue GAMMA=   1.8231
  6.1475  2.5431  1.5816  1.2579  0.8841  0.8663  0.6878  0.6161

 Free energy of the ion-electron system (eV)
  ---------------------------------------------------
  alpha Z        PSCENC =         1.00215234
  Ewald energy   TEWEN  =      3451.00526145
  -Hartree energ DENC   =     -4582.23874991
  -exchange      EXHF   =         0.00000000
  -V(xc)+E(xc)   XCENC  =       129.70009055
  PAW double counting   =      3655.30044522    -3654.27776802
  entropy T*S    EENTRO =        -0.00000000
  eigenvalues    EBANDS =      -501.09185571
  atomic energy  EATOM  =      1415.26145558
  Solvation  Ediel_sol  =         0.00000000
  ---------------------------------------------------
  free energy    TOTEN  =       -85.33896850 eV

  energy without entropy =      -85.33896850  energy(sigma->0) =      -85.33896850


--------------------------------------------------------------------------------------------------------




--------------------------------------- Iteration      1(  14)  ---------------------------------------


    POTLOK:  cpu time      7.9594: real time      7.9694
    SETDIJ:  cpu time      1.3006: real time      1.3014
     EDDAV:  cpu time      1.0190: real time      1.0201
       DOS:  cpu time      0.0008: real time      0.0009
    CHARGE:  cpu time      0.1646: real time      0.1645
    MIXING:  cpu time      0.0292: real time      0.0292
    --------------------------------------------
      LOOP:  cpu time     10.4736: real time     10.4855

 eigenvalue-minimisations  :   264
 total energy-change (2. order) :-0.7221352E-01  (-0.1149830E-02)
 number of electron      42.0000012 magnetization       3.9914555
 augmentation part        0.0135287 magnetization       3.9914317

 Broyden mixing:
  rms(total) = 0.68011E-01    rms(broyden)= 0.68011E-01
  rms(prec ) = 0.68194E-01
  weight for this iteration     100.00

 eigenvalues of (default mixing * dielectric matrix)
  average eigenvalue GAMMA=   2.0863
  8.4359  2.8111  2.1512  1.4624  1.0242  0.8305  0.7786  0.6658  0.6173

 Free energy of the ion-electron system (eV)
  ---------------------------------------------------
  alpha Z        PSCENC =         1.00215234
  Ewald energy   TEWEN  =      3451.00526145
  -Hartree energ DENC   =     -4584.17799112
  -exchange      EXHF   =         0.00000000
  -V(xc)+E(xc)   XCENC  =       129.64561100
  PAW double counting   =      3635.60002612    -3634.58567671
  entropy T*S    EENTRO =        -0.00000000
  eigenvalues    EBANDS =      -499.16202068
  atomic energy  EATOM  =      1415.26145558
  Solvation  Ediel_sol  =         0.00000000
  ---------------------------------------------------
  free energy    TOTEN  =       -85.41118202 eV

  energy without entropy =      -85.41118202  energy(sigma->0) =      -85.41118202


--------------------------------------------------------------------------------------------------------




--------------------------------------- Iteration      1(  15)  ---------------------------------------


    POTLOK:  cpu time      7.8749: real time      7.8846
    SETDIJ:  cpu time      1.3024: real time      1.3039
     EDDAV:  cpu time      1.1751: real time      1.1762
       DOS:  cpu time      0.0009: real time      0.0009
    CHARGE:  cpu time      0.1645: real time      0.1645
    MIXING:  cpu time      0.0316: real time      0.0316
    --------------------------------------------
      LOOP:  cpu time     10.5493: real time     10.5617

 eigenvalue-minimisations  :   312
 total energy-change (2. order) :-0.4885185E-01  (-0.1044595E-02)
 number of electron      42.0000012 magnetization       3.1602147
 augmentation part        0.0141339 magnetization       3.1603447

 Broyden mixing:
  rms(total) = 0.51477E-01    rms(broyden)= 0.51477E-01
  rms(prec ) = 0.51690E-01
  weight for this iteration     100.00

 eigenvalues of (default mixing * dielectric matrix)
  average eigenvalue GAMMA=   2.1981
 10.0501  3.1119  2.4570  1.3727  1.2121  0.9370  0.8627  0.7205  0.6411  0.6163

 Free energy of the ion-electron system (eV)
  ---------------------------------------------------
  alpha Z        PSCENC =         1.00215234
  Ewald energy   TEWEN  =      3451.00526145
  -Hartree energ DENC   =     -4584.78145240
  -exchange      EXHF   =         0.00000000
  -V(xc)+E(xc)   XCENC  =       129.61810181
  PAW double counting   =      3659.60187225    -3658.59462018
  entropy T*S    EENTRO =        -0.00000000
  eigenvalues    EBANDS =      -498.57280472
  atomic energy  EATOM  =      1415.26145558
  Solvation  Ediel_sol  =         0.00000000
  ---------------------------------------------------
  free energy    TOTEN  =       -85.46003387 eV

  energy without entropy =      -85.46003387  energy(sigma->0) =      -85.46003387


--------------------------------------------------------------------------------------------------------




--------------------------------------- Iteration      1(  16)  ---------------------------------------


    POTLOK:  cpu time      7.9701: real time      7.9798
    SETDIJ:  cpu time      1.3033: real time      1.3041
     EDDAV:  cpu time      1.0149: real time      1.0169
       DOS:  cpu time      0.0009: real time      0.0009
    CHARGE:  cpu time      0.1618: real time      0.1617
    MIXING:  cpu time      0.0323: real time      0.0323
    --------------------------------------------
      LOOP:  cpu time     10.4832: real time     10.4956

 eigenvalue-minimisations  :   264
 total energy-change (2. order) :-0.1785999E-01  (-0.2796340E-03)
 number of electron      42.0000012 magnetization       2.1277135
 augmentation part        0.0135901 magnetization       2.1277799

 Broyden mixing:
  rms(total) = 0.41981E-01    rms(broyden)= 0.41981E-01
  rms(prec ) = 0.42145E-01
  weight for this iteration     100.00

 eigenvalues of (default mixing * dielectric matrix)
  average eigenvalue GAMMA=   2.3400
 11.5539  3.6639  2.4986  1.6236  1.6236  1.0960  0.8648  0.8648  0.7044  0.6137
  0.6329

 Free energy of the ion-electron system (eV)
  ---------------------------------------------------
  alpha Z        PSCENC =         1.00215234
  Ewald energy   TEWEN  =      3451.00526145
  -Hartree energ DENC   =     -4584.24383854
  -exchange      EXHF   =         0.00000000
  -V(xc)+E(xc)   XCENC  =       129.58387365
  PAW double counting   =      3678.92024931    -3677.91112551
  entropy T*S    EENTRO =        -0.00000000
  eigenvalues    EBANDS =      -499.09592215
  atomic energy  EATOM  =      1415.26145558
  Solvation  Ediel_sol  =         0.00000000
  ---------------------------------------------------
  free energy    TOTEN  =       -85.47789386 eV

  energy without entropy =      -85.47789386  energy(sigma->0) =      -85.47789386


--------------------------------------------------------------------------------------------------------




--------------------------------------- Iteration      1(  17)  ---------------------------------------


    POTLOK:  cpu time      7.9429: real time      7.9526
    SETDIJ:  cpu time      1.3066: real time      1.3074
     EDDAV:  cpu time      1.1850: real time      1.1862
       DOS:  cpu time      0.0011: real time      0.0011
    CHARGE:  cpu time      0.1660: real time      0.1671
    MIXING:  cpu time      0.0347: real time      0.0347
    --------------------------------------------
      LOOP:  cpu time     10.6363: real time     10.6492

 eigenvalue-minimisations  :   312
 total energy-change (2. order) :-0.1567567E-01  (-0.3772652E-03)
 number of electron      42.0000012 magnetization       1.4848188
 augmentation part        0.0128697 magnetization       1.4848386

 Broyden mixing:
  rms(total) = 0.31116E-01    rms(broyden)= 0.31116E-01
  rms(prec ) = 0.31242E-01
  weight for this iteration     100.00

 eigenvalues of (default mixing * dielectric matrix)
  average eigenvalue GAMMA=   2.4097
 12.7009  4.2913  2.4795  2.2013  1.4603  1.2188  0.9118  0.9118  0.7952  0.6985
  0.6151  0.6325

 Free energy of the ion-electron system (eV)
  ---------------------------------------------------
  alpha Z        PSCENC =         1.00215234
  Ewald energy   TEWEN  =      3451.00526145
  -Hartree energ DENC   =     -4582.63554508
  -exchange      EXHF   =         0.00000000
  -V(xc)+E(xc)   XCENC  =       129.51436103
  PAW double counting   =      3684.91115252    -3683.89594164
  entropy T*S    EENTRO =        -0.00000000
  eigenvalues    EBANDS =      -500.65646574
  atomic energy  EATOM  =      1415.26145558
  Solvation  Ediel_sol  =         0.00000000
  ---------------------------------------------------
  free energy    TOTEN  =       -85.49356953 eV

  energy without entropy =      -85.49356953  energy(sigma->0) =      -85.49356953


--------------------------------------------------------------------------------------------------------




--------------------------------------- Iteration      1(  18)  ---------------------------------------


    POTLOK:  cpu time      8.0373: real time      8.0471
    SETDIJ:  cpu time      1.3059: real time      1.3067
     EDDAV:  cpu time      1.1709: real time      1.1719
       DOS:  cpu time      0.0011: real time      0.0011
    CHARGE:  cpu time      0.1649: real time      0.1658
    MIXING:  cpu time      0.0391: real time      0.0391
    --------------------------------------------
      LOOP:  cpu time     10.7191: real time     10.7316

 eigenvalue-minimisations  :   312
 total energy-change (2. order) :-0.4537955E-02  (-0.1383426E-03)
 number of electron      42.0000012 magnetization       0.7758788
 augmentation part        0.0131421 magnetization       0.7758477

 Broyden mixing:
  rms(total) = 0.23873E-01    rms(broyden)= 0.23873E-01
  rms(prec ) = 0.23960E-01
  weight for this iteration     100.00

 eigenvalues of (default mixing * dielectric matrix)
  average eigenvalue GAMMA=   2.5601
 14.1018  5.3893  2.6188  2.5374  1.5095  1.5095  1.1667  0.8858  0.8858  0.7442
  0.6861  0.6163  0.6295

 Free energy of the ion-electron system (eV)
  ---------------------------------------------------
  alpha Z        PSCENC =         1.00215234
  Ewald energy   TEWEN  =      3451.00526145
  -Hartree energ DENC   =     -4581.51887995
  -exchange      EXHF   =         0.00000000
  -V(xc)+E(xc)   XCENC  =       129.48972127
  PAW double counting   =      3683.81017313    -3682.79560543
  entropy T*S    EENTRO =        -0.00000000
  eigenvalues    EBANDS =      -501.75238588
  atomic energy  EATOM  =      1415.26145558
  Solvation  Ediel_sol  =         0.00000000
  ---------------------------------------------------
  free energy    TOTEN  =       -85.49810749 eV

  energy without entropy =      -85.49810749  energy(sigma->0) =      -85.49810749


--------------------------------------------------------------------------------------------------------




--------------------------------------- Iteration      1(  19)  ---------------------------------------


    POTLOK:  cpu time      7.9580: real time      7.9671
    SETDIJ:  cpu time      1.3073: real time      1.3088
     EDDAV:  cpu time      1.1697: real time      1.1709
       DOS:  cpu time      0.0009: real time      0.0009
    CHARGE:  cpu time      0.1667: real time      0.1667
    MIXING:  cpu time      0.0372: real time      0.0372
    --------------------------------------------
      LOOP:  cpu time     10.6397: real time     10.6516

 eigenvalue-minimisations  :   312
 total energy-change (2. order) :-0.2319003E-02  (-0.1056586E-03)
 number of electron      42.0000012 magnetization       0.3956418
 augmentation part        0.0136916 magnetization       0.3956258

 Broyden mixing:
  rms(total) = 0.14859E-01    rms(broyden)= 0.14859E-01
  rms(prec ) = 0.14974E-01
  weight for this iteration     100.00

 eigenvalues of (default mixing * dielectric matrix)
  average eigenvalue GAMMA=   2.7766
 16.3239  7.0235  3.1878  2.4066  1.5865  1.5865  1.3809  0.9666  0.8747  0.8747
  0.7331  0.6823  0.6164  0.6286

 Free energy of the ion-electron system (eV)
  ---------------------------------------------------
  alpha Z        PSCENC =         1.00215234
  Ewald energy   TEWEN  =      3451.00526145
  -Hartree energ DENC   =     -4580.49065765
  -exchange      EXHF   =         0.00000000
  -V(xc)+E(xc)   XCENC  =       129.47679341
  PAW double counting   =      3678.32212325    -3677.30864460
  entropy T*S    EENTRO =        -0.00000000
  eigenvalues    EBANDS =      -502.76891027
  atomic energy  EATOM  =      1415.26145558
  Solvation  Ediel_sol  =         0.00000000
  ---------------------------------------------------
  free energy    TOTEN  =       -85.50042649 eV

  energy without entropy =      -85.50042649  energy(sigma->0) =      -85.50042649


--------------------------------------------------------------------------------------------------------




--------------------------------------- Iteration      1(  20)  ---------------------------------------


    POTLOK:  cpu time      8.0198: real time      8.0292
    SETDIJ:  cpu time      1.3060: real time      1.3076
     EDDAV:  cpu time      0.9614: real time      0.9625
       DOS:  cpu time      0.0009: real time      0.0009
    CHARGE:  cpu time      0.1699: real time      0.1700
    MIXING:  cpu time      0.0400: real time      0.0400
    --------------------------------------------
      LOOP:  cpu time     10.4981: real time     10.5101

 eigenvalue-minimisations  :   240
 total energy-change (2. order) :-0.3793519E-03  (-0.4499744E-04)
 number of electron      42.0000012 magnetization       0.1970899
 augmentation part        0.0135977 magnetization       0.1970738

 Broyden mixing:
  rms(total) = 0.10004E-01    rms(broyden)= 0.10004E-01
  rms(prec ) = 0.10113E-01
  weight for this iteration     100.00

 eigenvalues of (default mixing * dielectric matrix)
  average eigenvalue GAMMA=   2.8690
 18.0207  7.9291  3.4509  2.3707  1.8506  1.4683  1.4683  1.1795  0.9532  0.8865
  0.8296  0.7112  0.6703  0.6168  0.6294

 Free energy of the ion-electron system (eV)
  ---------------------------------------------------
  alpha Z        PSCENC =         1.00215234
  Ewald energy   TEWEN  =      3451.00526145
  -Hartree energ DENC   =     -4580.22065128
  -exchange      EXHF   =         0.00000000
  -V(xc)+E(xc)   XCENC  =       129.47984599
  PAW double counting   =      3675.50220789    -3674.48920142
  entropy T*S    EENTRO =        -0.00000000
  eigenvalues    EBANDS =      -503.04187640
  atomic energy  EATOM  =      1415.26145558
  Solvation  Ediel_sol  =         0.00000000
  ---------------------------------------------------
  free energy    TOTEN  =       -85.50080584 eV

  energy without entropy =      -85.50080584  energy(sigma->0) =      -85.50080584


--------------------------------------------------------------------------------------------------------




--------------------------------------- Iteration      1(  21)  ---------------------------------------


    POTLOK:  cpu time      8.1248: real time      8.1345
    SETDIJ:  cpu time      1.3083: real time      1.3098
     EDDAV:  cpu time      0.8812: real time      0.8823
       DOS:  cpu time      0.0011: real time      0.0010
    CHARGE:  cpu time      0.1636: real time      0.1636
    MIXING:  cpu time      0.0427: real time      0.0427
    --------------------------------------------
      LOOP:  cpu time     10.5216: real time     10.5338

 eigenvalue-minimisations  :   216
 total energy-change (2. order) :-0.4122972E-03  (-0.3938364E-04)
 number of electron      42.0000012 magnetization       0.0900339
 augmentation part        0.0134132 magnetization       0.0900276

 Broyden mixing:
  rms(total) = 0.66982E-02    rms(broyden)= 0.66979E-02
  rms(prec ) = 0.67791E-02
  weight for this iteration     100.00

 eigenvalues of (default mixing * dielectric matrix)
  average eigenvalue GAMMA=   2.9288
 19.3007  8.5444  3.7236  2.4434  2.3333  1.4863  1.4863  1.4345  0.9796  0.8799
  0.8799  0.7762  0.6928  0.6167  0.6286  0.6543

 Free energy of the ion-electron system (eV)
  ---------------------------------------------------
  alpha Z        PSCENC =         1.00215234
  Ewald energy   TEWEN  =      3451.00526145
  -Hartree energ DENC   =     -4580.21622189
  -exchange      EXHF   =         0.00000000
  -V(xc)+E(xc)   XCENC  =       129.48588336
  PAW double counting   =      3674.57885384    -3673.56714984
  entropy T*S    EENTRO =        -0.00000000
  eigenvalues    EBANDS =      -503.05145298
  atomic energy  EATOM  =      1415.26145558
  Solvation  Ediel_sol  =         0.00000000
  ---------------------------------------------------
  free energy    TOTEN  =       -85.50121814 eV

  energy without entropy =      -85.50121814  energy(sigma->0) =      -85.50121814


--------------------------------------------------------------------------------------------------------




--------------------------------------- Iteration      1(  22)  ---------------------------------------


    POTLOK:  cpu time      7.8303: real time      7.8402
    SETDIJ:  cpu time      1.3074: real time      1.3082
     EDDAV:  cpu time      0.8729: real time      0.8737
       DOS:  cpu time      0.0009: real time      0.0009
    CHARGE:  cpu time      0.1648: real time      0.1648
    MIXING:  cpu time      0.0440: real time      0.0440
    --------------------------------------------
      LOOP:  cpu time     10.2203: real time     10.2318

 eigenvalue-minimisations  :   216
 total energy-change (2. order) : 0.2091735E-04  (-0.2825113E-04)
 number of electron      42.0000012 magnetization       0.0270081
 augmentation part        0.0133566 magnetization       0.0270188

 Broyden mixing:
  rms(total) = 0.40254E-02    rms(broyden)= 0.40253E-02
  rms(prec ) = 0.40746E-02
  weight for this iteration     100.00

 eigenvalues of (default mixing * dielectric matrix)
  average eigenvalue GAMMA=   2.9932
 20.3807  9.1023  4.3139  2.9939  2.3802  1.6031  1.4917  1.4917  1.1477  0.9727
  0.8587  0.8587  0.7343  0.6716  0.6157  0.6279  0.6398

 Free energy of the ion-electron system (eV)
  ---------------------------------------------------
  alpha Z        PSCENC =         1.00215234
  Ewald energy   TEWEN  =      3451.00526145
  -Hartree energ DENC   =     -4580.27150790
  -exchange      EXHF   =         0.00000000
  -V(xc)+E(xc)   XCENC  =       129.48859192
  PAW double counting   =      3674.81628227    -3673.80509219
  entropy T*S    EENTRO =        -0.00000000
  eigenvalues    EBANDS =      -502.99834070
  atomic energy  EATOM  =      1415.26145558
  Solvation  Ediel_sol  =         0.00000000
  ---------------------------------------------------
  free energy    TOTEN  =       -85.50119722 eV

  energy without entropy =      -85.50119722  energy(sigma->0) =      -85.50119722


--------------------------------------------------------------------------------------------------------




[...]
  248        set_dd_paw                            1.299165                            1   3
  249          set_rsgf_all                          0.000002                          1   4
  250          m_sumb_d                              1.299048                          7   4
  251        strkin                                0.001996                            1   3
  252          m_sumb_d                              0.000862                          1   4
  253        strelo                                0.014637                            1   3
  254          m_sumb_d                              0.000476                          2   4
  255        strnlr                                0.678250                            1   3
  256          rspher_all                            0.027624                          9   4
  257          phaser                                0.000004                          9   4
  258          rpro_isp                              0.622721                          9   4
  259            fftwav_mpi                            0.611941                       36   5
  260              fft3d_mpi                             0.529615                     36   6
  261                fftbrc_mpi                            0.435760                   36   7
  262                  fftbas_plan_mpi                       0.435656                 36   8
  263                    dfftw_execute                         0.218031              108   9
  264                    map_forward                           0.194577               72   9
  265                      map_gather                            0.044522             36  10
  266                      m_alltoallv_z                         0.033642             36  10
  267                      map_scatter                           0.051880             36  10
  268            rpromu                                0.010234                       18   5
  269              rpromu_gemm                           0.002408                    288   6
  270              m_sumb_d                              0.002925                     36   6
  271          m_sumb_d                              0.027372                          1   4
  272        m_sumb_d                              0.000492                            7   3
  273        fft3d_mpi                             0.866688                           82   3
  274          fftbrc_mpi                            0.821110                         82   4
  275            fftbas_plan_mpi                       0.820886                       82   5
  276              dfftw_execute                         0.214710                    246   6
  277              map_forward                           0.267224                     80   6
  278                map_gather                            0.043809                   40   7
  279                m_alltoallv_z                         0.196744                   40   7
  280                map_scatter                           0.025972                   40   7
  281              map_backward                          0.286201                     84   6
  282                map_gather                            0.022148                   42   7
  283                m_alltoallv_z                         0.198607                   42   7
  284                map_scatter                           0.064642                   42   7
  285        forhar                                0.099766                            2   3
  286          m_sumb_d                              0.001310                          2   4
  287        strehar                               0.012761                            1   3
  288          m_sumb_d                              0.000629                          1   4
  289        chggra                                0.042739                            1   3
  290          fft3d_mpi                             0.031131                          3   4
  291            fftbrc_mpi                            0.029565                        3   5
  292              fftbas_plan_mpi                       0.029556                      3   6
  293                dfftw_execute                         0.007971                    9   7
  294                map_backward                          0.006483                    2   7
  295                  map_gather                            0.000500                  1   8
  296                  m_alltoallv_z                         0.004512                  1   8
  297                  map_scatter                           0.001446                  1   8
  298                map_forward                           0.013060                    4   7
  299                  map_gather                            0.002306                  2   8
  300                  m_alltoallv_z                         0.009362                  2   8
  301                  map_scatter                           0.001349                  2   8
  302          m_sumb_d                              0.000078                          2   4
  303          pothar                                0.002593                          1   4
  304            m_sumb_d                              0.000567                        1   5
  305        brmix                                 0.072542                            1   3
  306          m_sumb_d                              0.000351                          6   4
  307          brpre                                 0.000327                          2   4
  308          setg0                                 0.006536                          1   4
  309          broyd                                 0.055419                          1   4
  310            m_sumb_d                              0.003648                       35   5
  311            brget                                 0.010806                      177   5
  312            brsav                                 0.003086                       33   5
  313        m_bcast_d                             0.000475                            2   3
  314      potlok                                8.157763                              1   2
  315        fft3d_mpi                             1.078619                           86   3
  316          fftbrc_mpi                            1.030188                         86   4
  317            fftbas_plan_mpi                       1.029934                       86   5
  318              dfftw_execute                         0.228927                    258   6
  319              map_forward                           0.457678                     88   6
  320                map_gather                            0.042183                   46   7
  321                m_alltoallv_z                         0.382728                   46   7
  322                map_scatter                           0.031859                   46   7
  323              map_backward                          0.288182                     84   6
  324                map_gather                            0.022789                   42   7
  325                m_alltoallv_z                         0.197341                   42   7
  326                map_scatter                           0.067332                   42   7
  327        m_sumb_d                              0.441366                            6   3
  328        pothar                                0.002225                            1   3
  329          m_sumb_d                              0.000179                          1   4
  330        m_bcast_d                             0.009420                            2   3
  331      potlok_metagga                        0.000001                              1   2
  332      set_dd_magatom                        0.000001                              1   2
  333      set_dd_paw                            1.298589                              1   2
  334        set_rsgf_all                          0.000001                            1   3
  335        m_sumb_d                              1.298459                            7   3
  336      m_bcast_d                             0.000137                              2   2
  337      densta                                0.000602                              1   2
  338        m_sumb_d                              0.000522                            8   3
 
 Flat profile
 ============
 
             routine name                   CPU           calls
 ---------------------------------------------------------------
 potlok                                198.793228          30
 m_sumb_d                               54.821011        5576
 total_time                             19.469892           1
 m_alltoallv_z                          17.348994        4387
 dfftw_execute                          16.092393       12807
 force_and_stress                        7.082946           1
 fft3d_mpi                               5.469034        4269
 map_scatter                             5.152116        4387
 m_alltoall_d                            4.200810        3673
 map_gather                              4.079395        4387
 fftwav_mpi                              2.724153         984
 fftbas_plan_mpi                         2.709189        4269
 map_forward                             1.891870        4694
 vhamil                                  1.762042         503
 lapack                                  1.588825         503
 orth1                                   1.241101        1513
 eddav                                   0.775179          33
 soft_charge                             0.694999          29
 ggemm                                   0.437404         635
 broyd                                   0.427742          29
 m_bcast_d                               0.393114        1573
 m_bcast_z                               0.354775         100
 redis_pw                                0.338641        1513
 brmix                                   0.300683          29
 eccp                                    0.294956         132
 w1_copy                                 0.262097        1509
 fftext_mpi                              0.219854         503
 elmin                                   0.208454           1
 setdij_                                 0.207132          57
 setg0                                   0.190625          31
 augmentation_charge                     0.175103          29
 brget                                   0.142297        2520
 pw_charge                               0.135734          58
 racc0                                   0.117523         503
 kinhamil                                0.111073         503
 forhar                                  0.098456           2
 lincom                                  0.095985          68
 rpro1                                   0.088693         371
 apply_precond                           0.072462         371
 pothar                                  0.063844          31
 forloc                                  0.063216           1
 brsav                                   0.053398         556
 setup_precond                           0.050112         132
 fft_gq                                  0.048144          29
 inisym                                  0.044452           1
 stufak                                  0.041844           1
 rspher_all                              0.041517          14
 map_backward                            0.037048        3844
 set_charge                              0.033855          29
 redis_proj                              0.032164        1886
 overl                                   0.018052         876
 choleski                                0.014892           2
 strelo                                  0.014161           1
 fftbrc_mpi                              0.013954        4269
 rpromu_gemm                             0.012910         416
 strehar                                 0.012132           1
 brpre                                   0.011822          58
 overl1                                  0.011165         503
 rpro_isp                                0.011159          13
 newband                                 0.009306         569
 hamiltmu                                0.009090         503
 chggra                                  0.008937           1
 rpromu                                  0.007211          26
 set_dd_paw                              0.006228          31
 raccmu_                                 0.005785         503
 brgrid                                  0.005646           1
 fewald                                  0.005009           1
 densta                                  0.003142          34
 w1_projall                              0.001830         371
 depsum                                  0.001397          29
 rsp                                     0.001190           1
 strkin                                  0.001134           1
 orthch                                  0.001083           1
 truncate_high_frequency_w1              0.000777         635
 strnlr                                  0.000529           1
 crpa_reader                             0.000231           1
 fornlr                                  0.000163           1
 fordep                                  0.000119           1
 rcp                                     0.000093           1
 set_rsgf_all                            0.000078          31
 phaser                                  0.000050          79
 vectorpot                               0.000049          30
 set_dd_magatom                          0.000044          31
 potlok_metagga                          0.000039          30
 posmap                                  0.000028           2
 rotate_active_occupied_orbital          0.000026           1
 proall                                  0.000024           1
 redis_pw_over_bands                     0.000001           1
 ---------------------------------------------------------------
  summed up times    351.269060134888     
 
 Accumulative profile
 ====================
 
             routine name                   CPU           calls
 ---------------------------------------------------------------
 total_time                            351.269060           1
 elmin                                 310.872618           1
 potlok                                240.482499          30
 m_sumb_d                               54.821011        5576
 fft3d_mpi                              52.793992        4269
 fftbrc_mpi                             47.324958        4269
 fftbas_plan_mpi                        47.311003        4269
 set_dd_paw                             40.331732          31
 eddav                                  34.650633          33
 fftwav_mpi                             17.597085         984
 m_alltoallv_z                          17.348994        4387
 map_forward                            16.763012        4694
 dfftw_execute                          16.092393       12807
 map_backward                           11.746410        3844
 force_and_stress                       10.756489           1
 hamiltmu                                8.537372         503
 kinhamil                                6.371929         503
 fftext_mpi                              6.260856         503
 map_scatter                             5.152116        4387
 set_charge                              4.825567          29
 m_alltoall_d                            4.200810        3673
 map_gather                              4.079395        4387
 soft_charge                             3.987075          29
 redis_pw                                3.388687        1513
 newband                                 3.211737         569
 vhamil                                  1.762042         503
 lapack                                  1.588825         503
 orth1                                   1.241101        1513
 brmix                                   1.218401          29
 redis_proj                              1.182928        1886
 rpro_isp                                0.969009          13
 augmentation_charge                     0.782012          29
 broyd                                   0.698905          29
 strnlr                                  0.678250           1
 fft_gq                                  0.631272          29
 ggemm                                   0.437404         635
 raccmu_                                 0.394311         503
 m_bcast_d                               0.393114        1573
 racc0                                   0.377361         503
 eccp                                    0.369864         132
 m_bcast_z                               0.354775         100
 w1_projall                              0.294607         371
 rpro1                                   0.292777         371
 w1_copy                                 0.262097        1509
 fornlr                                  0.244097           1
 setdij_                                 0.226751          57
 setg0                                   0.190625          31
 brget                                   0.142297        2520
 pw_charge                               0.135734          58
 proall                                  0.114640           1
 forhar                                  0.099766           2
 lincom                                  0.095985          68
 pothar                                  0.088517          31
 orthch                                  0.083606           1
 forloc                                  0.073662           1
 apply_precond                           0.072462         371
 setup_precond                           0.054607         132
 brsav                                   0.053398         556
 inisym                                  0.044480           1
 chggra                                  0.042739           1
 stufak                                  0.041844           1
 rspher_all                              0.041517          14
 rpromu                                  0.024233          26
 fordep                                  0.023717           1
 depsum                                  0.022625          29
 densta                                  0.020452          34
 overl                                   0.018052         876
 choleski                                0.014892           2
 strelo                                  0.014637           1
 rpromu_gemm                             0.012910         416
 strehar                                 0.012761           1
 brpre                                   0.011822          58
 overl1                                  0.011165         503
 fewald                                  0.008189           1
 brgrid                                  0.005646           1
 strkin                                  0.001996           1
 rsp                                     0.001190           1
 truncate_high_frequency_w1              0.000777         635
 crpa_reader                             0.000231           1
 rcp                                     0.000093           1
 set_rsgf_all                            0.000078          31
 phaser                                  0.000050          79
 vectorpot                               0.000049          30
 set_dd_magatom                          0.000044          31
 potlok_metagga                          0.000039          30
 posmap                                  0.000028           2
 rotate_active_occupied_orbital          0.000026           1
 redis_pw_over_bands                     0.000001           1
 ---------------------------------------------------------------
 
Profiling took   0.118250  0.040585  0.007333  0.006644 seconds
Profiling took   0.142554 seconds
