 vasp.6.3.2 27Jun22 (build Jan 03 2024 23:05:41) complex                        
  
 executed on           IFC15_impi date 2024.08.14  13:11:37
 running 1024 mpi-ranks, with    1 threads/rank
 distrk:  each k-point on  128 cores,    8 groups
 distr:  one band on NCORE=  16 cores,    8 groups


--------------------------------------------------------------------------------------------------------


 INCAR:
   ENCUT = 600.00
   EDIFF = 1.00e-06
   EDIFFG = -0.05
   ALGO = Normal
   ISMEAR = 0
   SIGMA = 0.05
   LCHARG = .FALSE.
   LWAVE = .FALSE.
   LREAL = Auto
   NELM = 2000
   NSW = 5000
   NCORE = 16
   KPAR = 8
   ISPIN = 2
   GGA = MK
   PARAM1 = 0.1234
   PARAM2 = 1.0
   AGGAC = 0.0
   LUSE_VDW = .TRUE.
   LASPH = .TRUE.
   LDIPOL = .TRUE.
   DIPOL = 0.5 0.5 0.5
   IDIPOL = 3
   IBRION = 44
   POTIM = 0.015

 POTCAR:    PAW_PBE Mo_sv 02Feb2006               
 POTCAR:    PAW_PBE S 06Sep2000                   
 POTCAR:    PAW_PBE C 08Apr2002                   
 POTCAR:    PAW_PBE H 15Jun2001                   
 POTCAR:    PAW_PBE N 08Apr2002                   
 -----------------------------------------------------------------------------
|                                                                             |
|           W    W    AA    RRRRR   N    N  II  N    N   GGGG   !!!           |
|           W    W   A  A   R    R  NN   N  II  NN   N  G    G  !!!           |
|           W    W  A    A  R    R  N N  N  II  N N  N  G       !!!           |
|           W WW W  AAAAAA  RRRRR   N  N N  II  N  N N  G  GGG   !            |
|           WW  WW  A    A  R   R   N   NN  II  N   NN  G    G                |
|           W    W  A    A  R    R  N    N  II  N    N   GGGG   !!!           |
|                                                                             |
|     You use a magnetic or noncollinear calculation, but did not specify     |
|     the initial magnetic moment with the MAGMOM tag. Note that a            |
|     default of 1 will be used for all atoms. This ferromagnetic setup       |
|     may break the symmetry of the crystal, in particular it may rule        |
|     out finding an antiferromagnetic solution. Thence, we recommend         |
|     setting the initial magnetic moment manually or verifying carefully     |
|     that this magnetic setup is desired.                                    |
|                                                                             |
 -----------------------------------------------------------------------------

 -----------------------------------------------------------------------------
|                                                                             |
|               ----> ADVICE to this user running VASP <----                  |
|                                                                             |
|     You have switched on vdW-DFT.                                           |
|     This routine was written and supplied by Jiri Klimes. We recommend      |
|     that you carefully read and cite the following publications:            |
|       J. Klimes, D.R. Bowler, A. Michelides                                 |
|          J. Phys.: Cond Matt. 22 022201 (2010)                              |
|       J. Klimes, D.R. Bowler, A. Michelides                                 |
|          Phys. Rev. B. 83, 195131 (2011)                                    |
|     and references therein.                                                 |
|                                                                             |
 -----------------------------------------------------------------------------

 POTCAR:    PAW_PBE Mo_sv 02Feb2006               
   SHA256 =  2731df97e41766cc617548c5a8267718fdef1f509ac6bafa01e745abea2bdfaa Mo_sv/POTCAR          
   COPYR  = (c) Copyright 02Feb2006 Georg Kresse                                                    
   COPYR  = This file is part of the software VASP. Any use, copying, and all other rights are regul
   COPYR  = If you do not have a valid VASP license, you may not use, copy or distribute this file. 
   VRHFIN =Mo: 4p5s4d                                                                               
   LEXCH  = PE                                                                                      
   EATOM  =  1862.2866 eV,  136.8742 Ry                                                             
                                                                                                    
   TITEL  = PAW_PBE Mo_sv 02Feb2006                                                                 
   LULTRA =        F    use ultrasoft PP ?                                                          
   IUNSCR =        1    unscreen: 0-lin 1-nonlin 2-no                                               
   RPACOR =    2.200    partial core radius                                                         
   POMASS =   95.940; ZVAL   =   14.000    mass and valenz                                          
   RCORE  =    2.500    outmost cutoff radius                                                       
   RWIGS  =    2.750; RWIGS  =    1.455    wigner-seitz radius (au A)                               
   ENMAX  =  242.676; ENMIN  =  182.007 eV                                                          
   ICORE  =        3    local potential                                                             
   LCOR   =        T    correct aug charges                                                         
   LPAW   =        T    paw PP                                                                      
   EAUG   =  446.014                                                                                
   DEXC   =    0.000                                                                                
   RMAX   =    2.563    core radius for proj-oper                                                   
   RAUG   =    1.300    factor for augmentation sphere                                              
   RDEP   =    2.641    radius for radial grids                                                     
   RDEPT  =    2.031    core radius for aug-charge                                                  
                                                                                                    
   Atomic configuration                                                                             
   11 entries                                                                                       
     n  l   j            E        occ.                                                              
     1  0  0.50    -19819.0341   2.0000                                                             
     2  0  0.50     -2799.0127   2.0000                                                             
     2  1  1.50     -2502.0276   6.0000                                                             
     3  0  0.50      -476.4449   2.0000                                                             
     3  1  1.50      -379.1496   6.0000                                                             
     3  2  2.50      -220.9367  10.0000                                                             
     4  0  0.50       -64.3378   2.0000                                                             
     5  0  0.50        -4.0862   1.0000                                                             
     4  1  1.50       -38.4773   6.0000                                                             
     4  2  2.50        -3.7535   5.0000                                                             
     4  3  2.50        -1.3606   0.0000                                                             
   Description                                                                                      
     l       E           TYP  RCUT    TYP  RCUT                                                     
     0    -64.3377829     23  2.100                                                                 
     0     -4.0861640     23  2.400                                                                 
     1    -38.4772993     23  2.100                                                                 
     1     13.6058260     23  2.100                                                                 
     2     -3.7534941     23  2.400                                                                 
     2     -5.1140767     23  2.400                                                                 
     3     -4.0817478     23  2.500                                                                 
  local pseudopotential read in
  partial core-charges read in
  partial kinetic energy density read in
  atomic valenz-charges read in
  non local Contribution for L=           0  read in
    real space projection operators read in
  non local Contribution for L=           0  read in
    real space projection operators read in
  non local Contribution for L=           1  read in
    real space projection operators read in
  non local Contribution for L=           1  read in
    real space projection operators read in
  non local Contribution for L=           2  read in
    real space projection operators read in
  non local Contribution for L=           2  read in
    real space projection operators read in
    PAW grid and wavefunctions read in
 
   number of l-projection  operators is LMAX  =           6
   number of lm-projection operators is LMMAX =          18
 
 POTCAR:    PAW_PBE S 06Sep2000                   
   SHA256 =  0fc7481fb0695f01bdc6462160264c5c84044ae9ec85a907d398b887a2bc3132 S/POTCAR              
   COPYR  = (c) Copyright 06Sep2000 Georg Kresse                                                    
   COPYR  = This file is part of the software VASP. Any use, copying, and all other rights are regul
   COPYR  = If you do not have a valid VASP license, you may not use, copy or distribute this file. 
   VRHFIN =S : s2p4                                                                                 
   LEXCH  = PE                                                                                      
   EATOM  =   276.8230 eV,   20.3459 Ry                                                             
                                                                                                    
   TITEL  = PAW_PBE S 06Sep2000                                                                     
   LULTRA =        F    use ultrasoft PP ?                                                          
   IUNSCR =        1    unscreen: 0-lin 1-nonlin 2-no                                               
   RPACOR =    1.500    partial core radius                                                         
   POMASS =   32.066; ZVAL   =    6.000    mass and valenz                                          
   RCORE  =    1.900    outmost cutoff radius                                                       
   RWIGS  =    2.200; RWIGS  =    1.164    wigner-seitz radius (au A)                               
   ENMAX  =  258.689; ENMIN  =  194.016 eV                                                          
   ICORE  =        2    local potential                                                             
   LCOR   =        T    correct aug charges                                                         
   LPAW   =        T    paw PP                                                                      
   EAUG   =  335.092                                                                                
   DEXC   =    0.000                                                                                
   RMAX   =    1.942    core radius for proj-oper                                                   
   RAUG   =    1.300    factor for augmentation sphere                                              
   RDEP   =    1.954    radius for radial grids                                                     
   RDEPT  =    1.744    core radius for aug-charge                                                  
                                                                                                    
   Atomic configuration                                                                             
    6 entries                                                                                       
     n  l   j            E        occ.                                                              
     1  0  0.50     -2405.8406   2.0000                                                             
     2  0  0.50      -211.7007   2.0000                                                             
     2  1  1.50      -156.4958   6.0000                                                             
     3  0  0.50       -17.2562   2.0000                                                             
     3  1  0.50        -7.0085   4.0000                                                             
     3  2  1.50        -6.8029   0.0000                                                             
   Description                                                                                      
     l       E           TYP  RCUT    TYP  RCUT                                                     
     0    -17.2561641     23  1.900                                                                 
     0    -15.8743224     23  1.900                                                                 
     1     -7.0085400     23  1.900                                                                 
     1     -2.7779785     23  1.900                                                                 
     2     -6.8029130     23  1.900                                                                 
  local pseudopotential read in
  partial core-charges read in
  partial kinetic energy density read in
  atomic valenz-charges read in
  non local Contribution for L=           0  read in
    real space projection operators read in
  non local Contribution for L=           0  read in
    real space projection operators read in
  non local Contribution for L=           1  read in
    real space projection operators read in
  non local Contribution for L=           1  read in
    real space projection operators read in
    PAW grid and wavefunctions read in
 
   number of l-projection  operators is LMAX  =           4
   number of lm-projection operators is LMMAX =           8
 
 POTCAR:    PAW_PBE C 08Apr2002                   
   SHA256 =  253f7b50bb8d59471dbedb8285d89021f4a42ed1a2c5d38a03a736e69125dd95 C/POTCAR              
   COPYR  = (c) Copyright 08Apr2002 Georg Kresse                                                    
   COPYR  = This file is part of the software VASP. Any use, copying, and all other rights are regul
   COPYR  = If you do not have a valid VASP license, you may not use, copy or distribute this file. 
   VRHFIN =C: s2p2                                                                                  
   LEXCH  = PE                                                                                      
   EATOM  =   147.1560 eV,   10.8157 Ry                                                             
                                                                                                    
   TITEL  = PAW_PBE C 08Apr2002                                                                     
   LULTRA =        F    use ultrasoft PP ?                                                          
   IUNSCR =        1    unscreen: 0-lin 1-nonlin 2-no                                               
   RPACOR =    1.200    partial core radius                                                         
   POMASS =   12.011; ZVAL   =    4.000    mass and valenz                                          
   RCORE  =    1.500    outmost cutoff radius                                                       
   RWIGS  =    1.630; RWIGS  =    0.863    wigner-seitz radius (au A)                               
   ENMAX  =  400.000; ENMIN  =  300.000 eV                                                          
   ICORE  =        2    local potential                                                             
   LCOR   =        T    correct aug charges                                                         
   LPAW   =        T    paw PP                                                                      
   EAUG   =  644.873                                                                                
   DEXC   =    0.000                                                                                
   RMAX   =    1.529    core radius for proj-oper                                                   
   RAUG   =    1.300    factor for augmentation sphere                                              
   RDEP   =    1.501    radius for radial grids                                                     
   RDEPT  =    1.300    core radius for aug-charge                                                  
                                                                                                    
   Atomic configuration                                                                             
    4 entries                                                                                       
     n  l   j            E        occ.                                                              
     1  0  0.50      -273.3789   2.0000                                                             
     2  0  0.50       -13.7508   2.0000                                                             
     2  1  0.50        -5.2854   2.0000                                                             
     3  2  1.50        -5.4423   0.0000                                                             
   Description                                                                                      
     l       E           TYP  RCUT    TYP  RCUT                                                     
     0    -13.7508458     23  1.200                                                                 
     0     -8.2022199     23  1.200                                                                 
     1     -5.2854383     23  1.500                                                                 
     1     34.0145650     23  1.500                                                                 
     2     -5.4423304      7  1.500                                                                 
  local pseudopotential read in
  partial core-charges read in
  partial kinetic energy density read in
  atomic valenz-charges read in
  non local Contribution for L=           0  read in
    real space projection operators read in
  non local Contribution for L=           0  read in
    real space projection operators read in
  non local Contribution for L=           1  read in
    real space projection operators read in
  non local Contribution for L=           1  read in
    real space projection operators read in
    PAW grid and wavefunctions read in
 
   number of l-projection  operators is LMAX  =           4
   number of lm-projection operators is LMMAX =           8
 
 POTCAR:    PAW_PBE H 15Jun2001                   
   SHA256 =  030f79b5d3ab3cf0e668861823c8fb652ff669f3e15e46930bd03bfd63a607b6 H/POTCAR              
   COPYR  = (c) Copyright 15Jun2001 Georg Kresse                                                    
   COPYR  = This file is part of the software VASP. Any use, copying, and all other rights are regul
   COPYR  = If you do not have a valid VASP license, you may not use, copy or distribute this file. 
   VRHFIN =H: ultrasoft test                                                                        
   LEXCH  = PE                                                                                      
   EATOM  =    12.4884 eV,    0.9179 Ry                                                             
                                                                                                    
   TITEL  = PAW_PBE H 15Jun2001                                                                     
   LULTRA =        F    use ultrasoft PP ?                                                          
   IUNSCR =        0    unscreen: 0-lin 1-nonlin 2-no                                               
   RPACOR =    0.000    partial core radius                                                         
   POMASS =    1.000; ZVAL   =    1.000    mass and valenz                                          
   RCORE  =    1.100    outmost cutoff radius                                                       
   RWIGS  =    0.700; RWIGS  =    0.370    wigner-seitz radius (au A)                               
   ENMAX  =  250.000; ENMIN  =  200.000 eV                                                          
   RCLOC  =    0.701    cutoff for local pot                                                        
   LCOR   =        T    correct aug charges                                                         
   LPAW   =        T    paw PP                                                                      
   EAUG   =  400.000                                                                                
   RMAX   =    1.123    core radius for proj-oper                                                   
   RAUG   =    1.200    factor for augmentation sphere                                              
   RDEP   =    1.112    radius for radial grids                                                     
   RDEPT  =    0.926    core radius for aug-charge                                                  
                                                                                                    
   Atomic configuration                                                                             
    2 entries                                                                                       
     n  l   j            E        occ.                                                              
     1  0  0.50        -6.4927   1.0000                                                             
     2  1  0.50        -3.4015   0.0000                                                             
   Description                                                                                      
     l       E           TYP  RCUT    TYP  RCUT                                                     
     0     -6.4927494     23  1.100                                                                 
     0      6.8029130     23  1.100                                                                 
     1     -4.0817478     23  1.100                                                                 
  local pseudopotential read in
  atomic valenz-charges read in
  non local Contribution for L=           0  read in
    real space projection operators read in
  non local Contribution for L=           0  read in
    real space projection operators read in
  non local Contribution for L=           1  read in
    real space projection operators read in
    PAW grid and wavefunctions read in
 
   number of l-projection  operators is LMAX  =           3
   number of lm-projection operators is LMMAX =           5
 
 POTCAR:    PAW_PBE N 08Apr2002                   
   SHA256 =  e053789ff3a61a86a1b75d8a110fcc91f86041011e7b0817c7c99e4e8a6349d7 N/POTCAR              
   COPYR  = (c) Copyright 08Apr2002 Georg Kresse                                                    
   COPYR  = This file is part of the software VASP. Any use, copying, and all other rights are regul
   COPYR  = If you do not have a valid VASP license, you may not use, copy or distribute this file. 
   VRHFIN =N: s2p3                                                                                  
   LEXCH  = PE                                                                                      
   EATOM  =   264.5486 eV,   19.4438 Ry                                                             
                                                                                                    
   TITEL  = PAW_PBE N 08Apr2002                                                                     
   LULTRA =        F    use ultrasoft PP ?                                                          
   IUNSCR =        1    unscreen: 0-lin 1-nonlin 2-no                                               
   RPACOR =    1.200    partial core radius                                                         
   POMASS =   14.001; ZVAL   =    5.000    mass and valenz                                          
   RCORE  =    1.500    outmost cutoff radius                                                       
   RWIGS  =    1.400; RWIGS  =    0.741    wigner-seitz radius (au A)                               
   ENMAX  =  400.000; ENMIN  =  300.000 eV                                                          
   ICORE  =        2    local potential                                                             
   LCOR   =        T    correct aug charges                                                         
   LPAW   =        T    paw PP                                                                      
   EAUG   =  627.112                                                                                
   DEXC   =    0.000                                                                                
   RMAX   =    1.529    core radius for proj-oper                                                   
   RAUG   =    1.300    factor for augmentation sphere                                              
   RDEP   =    1.514    radius for radial grids                                                     
   RDEPT  =    1.338    core radius for aug-charge                                                  
                                                                                                    
   Atomic configuration                                                                             
    4 entries                                                                                       
     n  l   j            E        occ.                                                              
     1  0  0.50      -384.7179   2.0000                                                             
     2  0  0.50       -18.5828   2.0000                                                             
     2  1  0.50        -7.0898   3.0000                                                             
     3  2  1.50        -6.8029   0.0000                                                             
   Description                                                                                      
     l       E           TYP  RCUT    TYP  RCUT                                                     
     0    -18.5828119     23  1.200                                                                 
     0    -13.5018863     23  1.200                                                                 
     1     -7.0897853     23  1.500                                                                 
     1      9.5240782     23  1.500                                                                 
     2     -6.8029130      7  1.500                                                                 
  local pseudopotential read in
  partial core-charges read in
  partial kinetic energy density read in
  atomic valenz-charges read in
  non local Contribution for L=           0  read in
    real space projection operators read in
  non local Contribution for L=           0  read in
    real space projection operators read in
  non local Contribution for L=           1  read in
    real space projection operators read in
  non local Contribution for L=           1  read in
    real space projection operators read in
    PAW grid and wavefunctions read in
 
   number of l-projection  operators is LMAX  =           4
   number of lm-projection operators is LMMAX =           8
 
 Optimization of the real space projectors (new method)

 maximal supplied QI-value         = 15.12
 optimisation between [QCUT,QGAM] = [ 12.55, 25.10] = [ 44.09,176.36] Ry 
 Optimized for a Real-space Cutoff    1.47 Angstroem

   l    n(q)    QCUT    max X(q) W(low)/X(q) W(high)/X(q)  e(spline) 
   0     11    12.548     3.559    0.18E-04    0.60E-05    0.19E-06
   0     11    12.548    20.730    0.37E-04    0.13E-04    0.98E-07
   1     11    12.548     3.279    0.80E-06    0.70E-06    0.27E-07
   1     11    12.548     4.693    0.72E-04    0.11E-03    0.38E-06
   2     10    12.548    67.616    0.34E-03    0.45E-03    0.54E-06
   2     10    12.548    62.420    0.34E-03    0.45E-03    0.54E-06
 Optimization of the real space projectors (new method)

 maximal supplied QI-value         = 19.84
 optimisation between [QCUT,QGAM] = [ 12.50, 25.00] = [ 43.76,175.03] Ry 
 Optimized for a Real-space Cutoff    1.06 Angstroem

   l    n(q)    QCUT    max X(q) W(low)/X(q) W(high)/X(q)  e(spline) 
   0      8    12.501   187.594    0.26E-03    0.17E-03    0.97E-07
   0      8    12.501   164.243    0.26E-03    0.17E-03    0.96E-07
   1      7    12.501    67.533    0.50E-03    0.61E-03    0.91E-07
   1      7    12.501    50.729    0.48E-03    0.60E-03    0.90E-07
 Optimization of the real space projectors (new method)

 maximal supplied QI-value         = 25.13
 optimisation between [QCUT,QGAM] = [ 12.32, 24.88] = [ 42.47,173.37] Ry 
 Optimized for a Real-space Cutoff    1.06 Angstroem

   l    n(q)    QCUT    max X(q) W(low)/X(q) W(high)/X(q)  e(spline) 
   0      8    12.315   115.676    0.34E-03    0.18E-03    0.23E-06
   0      8    12.315    87.132    0.34E-03    0.18E-03    0.22E-06
   1      7    12.315     4.429    0.45E-03    0.12E-03    0.18E-06
   1      7    12.315     2.733    0.35E-03    0.97E-04    0.15E-06
 Optimization of the real space projectors (new method)

 maximal supplied QI-value         = 34.20
 optimisation between [QCUT,QGAM] = [ 12.31, 24.97] = [ 42.46,174.58] Ry 
 Optimized for a Real-space Cutoff    1.00 Angstroem

   l    n(q)    QCUT    max X(q) W(low)/X(q) W(high)/X(q)  e(spline) 
   0      7    12.313    19.460    0.14E-03    0.42E-03    0.16E-06
   0      7    12.313    12.209    0.12E-03    0.40E-03    0.16E-06
   1      7    12.313     4.655    0.33E-03    0.59E-03    0.89E-07
 Optimization of the real space projectors (new method)

 maximal supplied QI-value         = 25.13
 optimisation between [QCUT,QGAM] = [ 12.32, 24.88] = [ 42.47,173.37] Ry 
 Optimized for a Real-space Cutoff    1.20 Angstroem

   l    n(q)    QCUT    max X(q) W(low)/X(q) W(high)/X(q)  e(spline) 
   0      9    12.315    79.467    0.14E-03    0.22E-04    0.37E-06
   0      9    12.315    66.151    0.14E-03    0.23E-04    0.36E-06
   1      8    12.315    22.077    0.30E-03    0.54E-03    0.45E-06
   1      8    12.315    15.894    0.30E-03    0.55E-03    0.45E-06
 -----------------------------------------------------------------------------
|                                                                             |
|               ----> ADVICE to this user running VASP <----                  |
|                                                                             |
|     You enforced a specific xc type in the INCAR file but a different       |
|     type was found in the POTCAR file.                                      |
|     I HOPE YOU KNOW WHAT YOU ARE DOING!                                     |
|                                                                             |
 -----------------------------------------------------------------------------

  PAW_PBE Mo_sv 02Feb2006               :
 energy of atom  1       EATOM=-1862.2866
 kinetic energy error for atom=    0.0041 (will be added to EATOM!!)
  PAW_PBE S 06Sep2000                   :
 energy of atom  2       EATOM= -276.8230
 kinetic energy error for atom=    0.0009 (will be added to EATOM!!)
  PAW_PBE C 08Apr2002                   :
 energy of atom  3       EATOM= -147.1560
 kinetic energy error for atom=    0.0057 (will be added to EATOM!!)
  PAW_PBE H 15Jun2001                   :
 energy of atom  4       EATOM=  -12.4884
 kinetic energy error for atom=    0.0004 (will be added to EATOM!!)
  PAW_PBE N 08Apr2002                   :
 energy of atom  5       EATOM= -264.5486
 kinetic energy error for atom=    0.0103 (will be added to EATOM!!)
 
 
 POSCAR: Mo S  H  C  H  N
  positions in direct lattice
  velocities in cartesian coordinates
 exchange correlation table for  LEXCH =       43
   RHO(1)=    0.500       N(1)  =     2000
   RHO(2)=  100.500       N(2)  =     4000

 VTST: version 4.1, (05/19/21)

 CHAIN: initializing optimizer
 
 OPT: Using VASP Dynamics algorithm
 CHAIN: Read ICHAIN            0
 
 POSCAR: Mo S  H  C  H  N
  positions in direct lattice
  velocities in cartesian coordinates
 


--------------------------------------------------------------------------------------------------------


 ion  position               nearest neighbor table
   1  0.933  0.665  0.500- 183 2.41  88 2.41 214 2.41 158 2.41 184 2.41 176 2.41  59 3.16   6 3.16
                            20 3.16  21 3.16  27 3.16  26 3.16
   2  0.865  0.531  0.671- 161 2.41 215 2.41 182 2.41 172 2.41 210 2.41 218 2.42   8 3.16  11 3.17
                             4 3.17   5 3.17  56 3.17  62 3.17
   3  0.066  0.533  0.330- 209 2.41 193 2.41  99 2.41 111 2.41 160 2.41 105 2.41  39 3.16   7 3.16
                            30 3.16  52 3.16  13 3.17  22 3.17
   4  0.066  0.531  0.670- 143 2.41 161 2.41 106 2.41 204 2.41 210 2.41  90 2.41  44 3.16   8 3.16
                            14 3.16  11 3.16   2 3.17  40 3.17
   5  0.867  0.732  0.670- 207 2.40 112 2.40 185 2.41 148 2.41 172 2.41 182 2.41  28 3.14   8 3.15
                            18 3.17   2 3.17  46 3.18  56 3.18
   6  0.133  0.665  0.500- 141 2.41  92 2.41 104 2.41  88 2.41 125 2.41 184 2.41  12 3.16   1 3.16
                            27 3.16  26 3.16  48 3.17  41 3.17
   7  0.866  0.333  0.330- 174 2.41 213 2.41 209 2.41 168 2.41 160 2.41 151 2.41   3 3.16  30 3.16
                            37 3.16  63 3.16  22 3.17  73 3.17
   8  0.065  0.731  0.670- 188 2.41 182 2.41 143 2.41 172 2.41 204 2.41 191 2.41   5 3.15  50 3.16
                            44 3.16   4 3.16   2 3.16  28 3.17
   9  0.264  0.130  0.668- 200 2.39  98 2.40  95 2.40 145 2.41 197 2.41  77 2.42  33 3.13  28 3.14
                            19 3.15  50 3.16  35 3.17  75 3.19
  10  0.933  0.065  0.500-  93 2.41 170 2.41 220 2.41  96 2.41 149 2.41 179 2.41  32 3.16  57 3.16
                            21 3.17  53 3.17  47 3.17  16 3.17
  11  0.866  0.331  0.670- 210 2.41 175 2.41 211 2.41 178 2.41 161 2.41 169 2.41  36 3.16  14 3.16
                             4 3.16   2 3.17  72 3.17  62 3.17
  12  0.133  0.466  0.500- 104 2.41 101 2.41 100 2.41 138 2.41  92 2.41  78 2.41   6 3.16  41 3.16
                            16 3.16  38 3.16  27 3.17  53 3.17
  13  0.066  0.733  0.330- 173 2.41 193 2.41 190 2.41 152 2.41 111 2.41 187 2.41  52 3.16  49 3.16
                            22 3.16  23 3.17  29 3.17   3 3.17
  14  0.066  0.331  0.670-  90 2.40 103 2.41 178 2.41 211 2.41 107 2.41 106 2.41  36 3.16   4 3.16
                            11 3.16  40 3.17  19 3.17  35 3.17
  15  0.066  0.133  0.330- 102 2.41 180 2.41  97 2.41  91 2.41  94 2.41 221 2.41  29 3.16  24 3.16
                            34 3.16  17 3.16  30 3.16  37 3.17
  16  0.133  0.266  0.500- 101 2.41  93 2.41 201 2.41 100 2.41  96 2.41 198 2.41  53 3.16  12 3.16
                            42 3.16  32 3.17  38 3.17  10 3.17
  17  0.866  0.933  0.330-  85 2.41 180 2.41 162 2.41 221 2.41 147 2.41 156 2.41  54 3.16  37 3.16
                            23 3.16  43 3.16  15 3.16  29 3.17
  18  0.866  0.932  0.670- 154 2.40 155 2.41 157 2.41 148 2.41 181 2.41 112 2.41  46 3.15  19 3.16
                            36 3.16  28 3.16  45 3.16   5 3.17
  19  0.065  0.131  0.669-  95 2.41 154 2.41 181 2.41 107 2.41 103 2.41  98 2.41   9 3.15  18 3.16
                            36 3.16  28 3.16  14 3.17  35 3.17
  20  0.733  0.665  0.500- 214 2.41 217 2.41 186 2.41 144 2.41 176 2.41 222 2.41  64 3.16  59 3.16
                            65 3.16   1 3.16  21 3.16  47 3.16
  21  0.933  0.865  0.500- 194 2.41 176 2.41 149 2.41 179 2.41 189 2.41 214 2.41  47 3.16   1 3.16
                            20 3.16  26 3.16  10 3.17  32 3.17
  22  0.866  0.533  0.330- 209 2.41 216 2.41 173 2.41 152 2.41 160 2.41 219 2.41  23 3.16  58 3.16
                            63 3.16  13 3.16   3 3.17   7 3.17
  23  0.866  0.733  0.330-  85 2.41 224 2.41 173 2.41 147 2.41 208 2.41 152 2.41  22 3.16  58 3.16
                            29 3.16  17 3.16  13 3.17  43 3.17
  24  0.266  0.133  0.330- 196 2.41  94 2.41  97 2.41 202 2.41 199 2.41 195 2.41  51 3.16  34 3.16
                            49 3.16  15 3.16  71 3.17  29 3.17
  25  0.333  0.065  0.500- 117 2.41 120 2.41 192 2.41 203 2.41 114 2.41 123 2.41  48 3.16  26 3.16
                            32 3.17  55 3.17  31 3.17  42 3.17
  26  0.133  0.865  0.500- 184 2.41 194 2.41  88 2.41 189 2.41 120 2.41 123 2.41  25 3.16   6 3.16
                            48 3.16   1 3.16  21 3.16  32 3.17
  27  0.933  0.465  0.500- 183 2.41 104 2.41 212 2.41 158 2.41 171 2.41  92 2.41  53 3.16   6 3.16
                            67 3.16   1 3.16  59 3.16  12 3.17
  28  0.065  0.931  0.669- 148 2.40  95 2.41  98 2.41 188 2.41 112 2.41 191 2.41   9 3.14   5 3.14
                            18 3.16  19 3.16  50 3.17   8 3.17
  29  0.066  0.933  0.330-  85 2.41  97 2.41 187 2.41 190 2.41  94 2.41 147 2.41  15 3.16  49 3.16
                            23 3.16  13 3.17  24 3.17  17 3.17
  30  0.066  0.333  0.330-  99 2.41 102 2.41 213 2.41 105 2.41  91 2.41 151 2.41  37 3.16   7 3.16
                             3 3.16  34 3.16  39 3.16  15 3.16
  31  0.533  0.265  0.500- 117 2.41 177 2.41 136 2.41  89 2.41 114 2.41 167 2.41  55 3.16  59 3.16
                            65 3.16  67 3.17  42 3.17  25 3.17
  32  0.133  0.066  0.500-  96 2.41 192 2.41  93 2.41 189 2.41 203 2.41 194 2.41  10 3.16  26 3.17
                            25 3.17  16 3.17  21 3.17  42 3.17
  33  0.463  0.326  0.668- 233 2.19  76 2.36  81 2.42 200 2.43  77 2.44  84 2.44 225 3.07   9 3.13
                            75 3.13  62 3.16  35 3.16  56 3.24  61 3.24
  34  0.266  0.333  0.330- 102 2.41 139 2.41 202 2.41 199 2.41  79 2.41  91 2.41  60 3.16  24 3.16
                            39 3.16  30 3.16  15 3.16  51 3.17
  35  0.266  0.331  0.670- 200 2.39 140 2.40 107 2.41 103 2.41  80 2.42  77 2.42  33 3.16   9 3.17
                            19 3.17  40 3.17  14 3.17  61 3.18
  36  0.866  0.131  0.670- 154 2.41 153 2.41 178 2.41 181 2.41 211 2.41 165 2.41  18 3.16  11 3.16
                            45 3.16  14 3.16  72 3.16  19 3.16
  37  0.866  0.133  0.330- 164 2.41 180 2.41 213 2.41 221 2.41 146 2.41 151 2.41  30 3.16   7 3.16
                            73 3.16  17 3.16  15 3.17  54 3.17
  38  0.333  0.466  0.500- 198 2.41 201 2.41  82 2.41  86 2.41 138 2.41  78 2.41  64 3.16  41 3.16
                            65 3.16  12 3.16  42 3.17  16 3.17
  39  0.266  0.533  0.330- 109 2.41  79 2.41 139 2.41  99 2.41 105 2.41 127 2.41   3 3.16  34 3.16
                            60 3.16  74 3.16  30 3.16  52 3.17
  40  0.266  0.531  0.671- 106 2.41 140 2.41 126 2.41 124 2.41  90 2.41  80 2.42  44 3.16  14 3.17
                             4 3.17  66 3.17  61 3.17  35 3.17
  41  0.333  0.666  0.500- 138 2.41 141 2.41  78 2.41 128 2.41 108 2.41 125 2.41  38 3.16  68 3.16
                            12 3.16  48 3.16  64 3.17   6 3.17
  42  0.333  0.266  0.500- 192 2.41  89 2.41 201 2.41 198 2.41 136 2.41 203 2.41  65 3.16  16 3.16
                            31 3.17  38 3.17  32 3.17  25 3.17
  43  0.666  0.733  0.330- 224 2.41 162 2.41 129 2.41 208 2.41 156 2.41 134 2.41  58 3.16  74 3.16
                            17 3.16  54 3.16  60 3.17  23 3.17
  44  0.265  0.731  0.670- 121 2.41 143 2.41 126 2.41 124 2.41 204 2.41 118 2.41  66 3.15  50 3.16
                             4 3.16   8 3.16  40 3.16  70 3.16
  45  0.666  0.932  0.670- 153 2.41 155 2.41 157 2.41 133 2.41 165 2.41 223 2.41  46 3.15  72 3.15
                            36 3.16  70 3.16  18 3.16  66 3.17
  46  0.666  0.733  0.671- 155 2.40 130 2.41 157 2.41 185 2.41 110 2.42 207 2.42  18 3.15  45 3.15
                            61 3.17  56 3.17   5 3.18  66 3.18
  47  0.733  0.865  0.500- 149 2.41 159 2.41 179 2.41 186 2.41 166 2.41 144 2.41  21 3.16  68 3.16
                            64 3.16  20 3.16  57 3.17  10 3.17
  48  0.333  0.866  0.500- 125 2.41 123 2.41 141 2.41 131 2.41 120 2.41 205 2.41  25 3.16  41 3.16
                            26 3.16   6 3.17  55 3.17  68 3.17
  49  0.266  0.933  0.330- 119 2.41 190 2.41 122 2.41 196 2.41 187 2.41 195 2.41  29 3.16  24 3.16
                            69 3.16  13 3.16  71 3.16  52 3.17
  50  0.265  0.931  0.669- 145 2.40 121 2.40 188 2.41 191 2.41 197 2.41 118 2.41   8 3.16  44 3.16
                            75 3.16   9 3.16  28 3.17  70 3.17
  51  0.466  0.333  0.330- 202 2.41  83 2.41 206 2.41  87 2.41 199 2.41 135 2.41  24 3.16  60 3.16
                            58 3.16  63 3.16  34 3.17  71 3.17
  52  0.266  0.733  0.330- 109 2.41 193 2.41 111 2.41 122 2.41 119 2.41 127 2.41  13 3.16  69 3.16
                             3 3.16  39 3.17  49 3.17  74 3.17
  53  0.933  0.266  0.500- 212 2.41 171 2.41 220 2.41 101 2.41 170 2.41 100 2.41  27 3.16  16 3.16
                            67 3.16  10 3.17  12 3.17  57 3.17
  54  0.666  0.933  0.330- 164 2.41 142 2.41 156 2.41 162 2.41 146 2.41 132 2.41  73 3.16  17 3.16
                            74 3.16  43 3.16  69 3.17  37 3.17
  55  0.533  0.066  0.500- 131 2.41 205 2.41 117 2.41 163 2.41 114 2.41 150 2.41  31 3.16  67 3.16
                            57 3.16  68 3.17  48 3.17  25 3.17
  56  0.666  0.532  0.673-  76 2.39 218 2.40 207 2.40 215 2.41 185 2.42 225 2.56  61 3.15   2 3.17
                            46 3.17   5 3.18  62 3.18  33 3.24
  57  0.733  0.065  0.500- 150 2.41 170 2.41 220 2.41 166 2.41 163 2.41 159 2.41  10 3.16  68 3.16
                            55 3.16  67 3.16  53 3.17  47 3.17
  58  0.666  0.533  0.330- 224 2.41 216 2.41 206 2.41  87 2.41 219 2.41 208 2.41  43 3.16  22 3.16
                            23 3.16  51 3.16  60 3.16  63 3.17
  59  0.733  0.466  0.500- 177 2.41 217 2.41 183 2.41 167 2.41 222 2.41 158 2.41  20 3.16   1 3.16
                            65 3.16  31 3.16  27 3.16  67 3.17
  60  0.466  0.533  0.330-  87 2.41 134 2.41 129 2.41 139 2.41 206 2.41  79 2.41  34 3.16  51 3.16
                            74 3.16  39 3.16  58 3.16  43 3.17
  61  0.466  0.532  0.673-  76 2.39  80 2.40 110 2.40 140 2.41 130 2.42 225 2.55  56 3.15  40 3.17
                            46 3.17  66 3.17  35 3.18  33 3.24
  62  0.665  0.331  0.670-  81 2.39 215 2.40 169 2.41 175 2.41  84 2.42 218 2.43  33 3.16  72 3.17
                            75 3.17  11 3.17   2 3.17  56 3.18
  63  0.666  0.333  0.330- 216 2.41  83 2.41 135 2.41 168 2.41 174 2.41 219 2.41  22 3.16  71 3.16
                             7 3.16  51 3.16  73 3.17  58 3.17
  64  0.533  0.665  0.500- 128 2.41 108 2.41 144 2.41  86 2.41  82 2.41 186 2.41  38 3.16  20 3.16
                            65 3.16  47 3.16  68 3.17  41 3.17
  65  0.533  0.465  0.500- 217 2.41  82 2.41 222 2.41  86 2.41 136 2.41  89 2.41  64 3.16  42 3.16
                            20 3.16  38 3.16  59 3.16  31 3.16
  66  0.465  0.732  0.670- 110 2.40 223 2.40 130 2.40 133 2.41 124 2.41 126 2.41  70 3.14  44 3.15
                            45 3.17  40 3.17  61 3.17  46 3.18
  67  0.733  0.266  0.500- 212 2.41 150 2.41 177 2.41 167 2.41 163 2.41 171 2.41  27 3.16  53 3.16
                            55 3.16  57 3.16  31 3.17  59 3.17
  68  0.533  0.865  0.500- 128 2.41 131 2.41 166 2.41 159 2.41 108 2.41 205 2.41  47 3.16  41 3.16
                            57 3.16  64 3.17  55 3.17  48 3.17
  69  0.466  0.933  0.330- 137 2.41 142 2.41 116 2.41 119 2.41 122 2.41 132 2.41  52 3.16  71 3.16
                            49 3.16  74 3.16  54 3.17  73 3.17
  70  0.465  0.931  0.669- 133 2.40 115 2.40 113 2.41 223 2.41 121 2.41 118 2.41  75 3.14  66 3.14
                            45 3.16  44 3.16  72 3.17  50 3.17
  71  0.466  0.133  0.330- 137 2.41 196 2.41  83 2.41 195 2.41 135 2.41 116 2.41  73 3.16  69 3.16
                            63 3.16  49 3.16  24 3.17  51 3.17
  72  0.665  0.131  0.669- 153 2.41 115 2.41 165 2.41 169 2.41 175 2.41 113 2.41  75 3.15  45 3.15
                            36 3.16  70 3.17  11 3.17  62 3.17
  73  0.666  0.133  0.330- 164 2.41 137 2.41 174 2.41 168 2.41 116 2.41 146 2.41  54 3.16  71 3.16
                            37 3.16  69 3.17  63 3.17   7 3.17
  74  0.466  0.733  0.330- 142 2.41 109 2.41 129 2.41 134 2.41 127 2.41 132 2.41  43 3.16  54 3.16
                            60 3.16  39 3.16  69 3.16  52 3.17
  75  0.466  0.130  0.668-  81 2.40 113 2.40 115 2.40 145 2.41 197 2.42  84 2.42  33 3.13  70 3.14
                            72 3.15  50 3.16  62 3.17   9 3.19
  76  0.533  0.467  0.630-  33 2.36  61 2.39  56 2.39
  77  0.327  0.263  0.624-   9 2.42  35 2.42  33 2.44
  78  0.266  0.532  0.543-  41 2.41  38 2.41  12 2.41
  79  0.333  0.466  0.373-  39 2.41  34 2.41  60 2.41
  80  0.330  0.462  0.714-  61 2.40  40 2.42  35 2.42
  81  0.531  0.261  0.712-  62 2.39  75 2.40  33 2.42
  82  0.466  0.532  0.543-  38 2.41  65 2.41  64 2.41
  83  0.533  0.266  0.287-  71 2.41  51 2.41  63 2.41
  84  0.535  0.262  0.624-  75 2.42  62 2.42  33 2.44
  85  0.933  0.866  0.287-  17 2.41  29 2.41  23 2.41
  86  0.466  0.532  0.457-  38 2.41  65 2.41  64 2.41
  87  0.533  0.466  0.287-  60 2.41  51 2.41  58 2.41
  88  0.066  0.732  0.543-   1 2.41  26 2.41   6 2.41
  89  0.466  0.332  0.457-  42 2.41  65 2.41  31 2.41
  90  0.133  0.465  0.627-  14 2.40   4 2.41  40 2.41
  91  0.133  0.266  0.373-  34 2.41  30 2.41  15 2.41
  92  0.066  0.532  0.457-   6 2.41  12 2.41  27 2.41
  93  0.066  0.132  0.543-  10 2.41  32 2.41  16 2.41
  94  0.133  0.066  0.373-  24 2.41  29 2.41  15 2.41
  95  0.133  0.065  0.712-   9 2.40  28 2.41  19 2.41
  96  0.066  0.132  0.457-  32 2.41  10 2.41  16 2.41
  97  0.133  0.066  0.287-  29 2.41  24 2.41  15 2.41
  98  0.130  0.063  0.626-   9 2.40  28 2.41  19 2.41
  99  0.133  0.466  0.287-  30 2.41   3 2.41  39 2.41
 100  0.066  0.332  0.543-  53 2.41  12 2.41  16 2.41
 101  0.066  0.332  0.457-  12 2.41  53 2.41  16 2.41
 102  0.133  0.266  0.287-  34 2.41  30 2.41  15 2.41
 103  0.133  0.266  0.627-  14 2.41  35 2.41  19 2.41
 104  0.066  0.532  0.543-  12 2.41  27 2.41   6 2.41
 105  0.133  0.466  0.373-  39 2.41  30 2.41   3 2.41
 106  0.131  0.464  0.713-  40 2.41   4 2.41  14 2.41
 107  0.132  0.264  0.713-  35 2.41  19 2.41  14 2.41
 108  0.466  0.732  0.543-  64 2.41  41 2.41  68 2.41
 109  0.333  0.666  0.287-  52 2.41  39 2.41  74 2.41
 110  0.533  0.670  0.714-  61 2.40  66 2.40  46 2.42
 111  0.133  0.666  0.373-   3 2.41  52 2.41  13 2.41
 112  0.931  0.864  0.626-   5 2.40  28 2.41  18 2.41
 113  0.533  0.063  0.626-  75 2.40  70 2.41  72 2.41
 114  0.466  0.132  0.457-  25 2.41  55 2.41  31 2.41
 115  0.531  0.064  0.712-  75 2.40  70 2.40  72 2.41
 116  0.533  0.066  0.373-  69 2.41  71 2.41  73 2.41
 117  0.466  0.132  0.543-  25 2.41  31 2.41  55 2.41
 118  0.332  0.863  0.626-  50 2.41  44 2.41  70 2.41
 119  0.333  0.866  0.287-  49 2.41  52 2.41  69 2.41
 120  0.266  0.932  0.457-  25 2.41  26 2.41  48 2.41
 121  0.332  0.866  0.712-  50 2.40  44 2.41  70 2.41
 122  0.333  0.866  0.373-  49 2.41  52 2.41  69 2.41
 123  0.266  0.932  0.543-  48 2.41  26 2.41  25 2.41
 124  0.332  0.663  0.627-  44 2.41  66 2.41  40 2.41
 125  0.266  0.732  0.457-  48 2.41   6 2.41  41 2.41
 126  0.332  0.666  0.713-  44 2.41  40 2.41  66 2.41
 127  0.333  0.666  0.373-  39 2.41  74 2.41  52 2.41
 128  0.466  0.732  0.457-  68 2.41  64 2.41  41 2.41
 129  0.533  0.666  0.287-  43 2.41  60 2.41  74 2.41
 130  0.532  0.662  0.629-  66 2.40  46 2.41  61 2.42
 131  0.466  0.932  0.543-  55 2.41  68 2.41  48 2.41
 132  0.533  0.866  0.373-  54 2.41  69 2.41  74 2.41
 133  0.532  0.867  0.713-  70 2.40  66 2.41  45 2.41
 134  0.533  0.666  0.373-  60 2.41  43 2.41  74 2.41
 135  0.533  0.266  0.373-  63 2.41  71 2.41  51 2.41
 136  0.466  0.332  0.543-  65 2.41  31 2.41  42 2.41
 137  0.533  0.066  0.287-  71 2.41  69 2.41  73 2.41
 138  0.266  0.532  0.457-  41 2.41  38 2.41  12 2.41
 139  0.333  0.466  0.287-  34 2.41  39 2.41  60 2.41
 140  0.337  0.468  0.629-  35 2.40  61 2.41  40 2.41
 141  0.266  0.732  0.543-   6 2.41  41 2.41  48 2.41
 142  0.533  0.866  0.287-  54 2.41  69 2.41  74 2.41
 143  0.132  0.665  0.713-  44 2.41   8 2.41   4 2.41
 144  0.666  0.732  0.543-  20 2.41  64 2.41  47 2.41
 145  0.332  0.064  0.711-  50 2.40   9 2.41  75 2.41
 146  0.733  0.066  0.373-  54 2.41  73 2.41  37 2.41
 147  0.933  0.866  0.373-  17 2.41  23 2.41  29 2.41
 148  0.934  0.866  0.713-  28 2.40   5 2.41  18 2.41
 149  0.866  0.932  0.457-  47 2.41  21 2.41  10 2.41
 150  0.666  0.132  0.543-  57 2.41  67 2.41  55 2.41
 151  0.933  0.266  0.373-  30 2.41   7 2.41  37 2.41
 152  0.933  0.666  0.373-  13 2.41  22 2.41  23 2.41
 153  0.732  0.065  0.712-  45 2.41  72 2.41  36 2.41
 154  0.933  0.065  0.713-  18 2.40  19 2.41  36 2.41
 155  0.734  0.868  0.713-  46 2.40  45 2.41  18 2.41
 156  0.733  0.866  0.373-  54 2.41  43 2.41  17 2.41
 157  0.732  0.864  0.627-  46 2.41  45 2.41  18 2.41
 158  0.866  0.532  0.543-   1 2.41  27 2.41  59 2.41
 159  0.666  0.932  0.543-  47 2.41  57 2.41  68 2.41
 160  0.933  0.466  0.373-   3 2.41   7 2.41  22 2.41
 161  0.932  0.464  0.713-   2 2.41   4 2.41  11 2.41
 162  0.733  0.866  0.287-  43 2.41  17 2.41  54 2.41
 163  0.666  0.132  0.457-  55 2.41  57 2.41  67 2.41
 164  0.733  0.066  0.287-  54 2.41  73 2.41  37 2.41
 165  0.733  0.065  0.626-  72 2.41  36 2.41  45 2.41
 166  0.666  0.932  0.457-  57 2.41  47 2.41  68 2.41
 167  0.666  0.332  0.543-  67 2.41  59 2.41  31 2.41
 168  0.733  0.266  0.373-  73 2.41  63 2.41   7 2.41
 169  0.731  0.264  0.713-  62 2.41  72 2.41  11 2.41
 170  0.866  0.132  0.457-  57 2.41  53 2.41  10 2.41
 171  0.866  0.332  0.457-  53 2.41  27 2.41  67 2.41
 172  0.931  0.663  0.627-   8 2.41   5 2.41   2 2.41
 173  0.933  0.666  0.287-  13 2.41  23 2.41  22 2.41
 174  0.733  0.266  0.287-   7 2.41  73 2.41  63 2.41
 175  0.733  0.266  0.627-  11 2.41  72 2.41  62 2.41
 176  0.866  0.732  0.457-  21 2.41  20 2.41   1 2.41
 177  0.666  0.332  0.457-  67 2.41  59 2.41  31 2.41
 178  0.932  0.264  0.713-  14 2.41  36 2.41  11 2.41
 179  0.866  0.932  0.543-  21 2.41  47 2.41  10 2.41
 180  0.933  0.066  0.287-  17 2.41  37 2.41  15 2.41
 181  0.932  0.065  0.626-  19 2.41  36 2.41  18 2.41
 182  0.934  0.666  0.713-   8 2.41   2 2.41   5 2.41
 183  0.866  0.532  0.457-   1 2.41  27 2.41  59 2.41
 184  0.066  0.732  0.457-  26 2.41   6 2.41   1 2.41
 185  0.730  0.662  0.628-   5 2.41  46 2.41  56 2.42
 186  0.666  0.732  0.457-  47 2.41  20 2.41  64 2.41
 187  0.133  0.866  0.373-  29 2.41  49 2.41  13 2.41
 188  0.133  0.865  0.712-   8 2.41  50 2.41  28 2.41
 189  0.066  0.932  0.457-  21 2.41  26 2.41  32 2.41
 190  0.133  0.866  0.287-  49 2.41  13 2.41  29 2.41
 191  0.131  0.863  0.626-  50 2.41   8 2.41  28 2.41
 192  0.266  0.132  0.543-  42 2.41  25 2.41  32 2.41
 193  0.133  0.666  0.287-  13 2.41   3 2.41  52 2.41
 194  0.066  0.932  0.543-  21 2.41  26 2.41  32 2.41
 195  0.333  0.066  0.373-  71 2.41  49 2.41  24 2.41
 196  0.333  0.066  0.287-  71 2.41  24 2.41  49 2.41
 197  0.331  0.063  0.625-  50 2.41   9 2.41  75 2.42
 198  0.266  0.332  0.543-  38 2.41  42 2.41  16 2.41
 199  0.333  0.266  0.373-  34 2.41  24 2.41  51 2.41
 200  0.330  0.261  0.712-  35 2.39   9 2.39  33 2.43
 201  0.266  0.332  0.457-  38 2.41  42 2.41  16 2.41
 202  0.333  0.266  0.287-  51 2.41  34 2.41  24 2.41
 203  0.266  0.132  0.457-  25 2.41  32 2.41  42 2.41
 204  0.132  0.664  0.627-   4 2.41  44 2.41   8 2.41
 205  0.466  0.932  0.457-  55 2.41  48 2.41  68 2.41
 206  0.533  0.466  0.373-  58 2.41  51 2.41  60 2.41
 207  0.737  0.669  0.714-   5 2.40  56 2.40  46 2.42
 208  0.733  0.666  0.373-  43 2.41  58 2.41  23 2.41
 209  0.933  0.466  0.287-   3 2.41  22 2.41   7 2.41
 210  0.932  0.465  0.627-  11 2.41   4 2.41   2 2.41
 211  0.933  0.265  0.627-  11 2.41  36 2.41  14 2.41
 212  0.866  0.332  0.543-  53 2.41  67 2.41  27 2.41
 213  0.933  0.266  0.287-   7 2.41  30 2.41  37 2.41
 214  0.866  0.732  0.543-  20 2.41   1 2.41  21 2.41
 215  0.730  0.467  0.628-  62 2.40   2 2.41  56 2.41
 216  0.733  0.466  0.287-  63 2.41  58 2.41  22 2.41
 217  0.666  0.532  0.457-  20 2.41  59 2.41  65 2.41
 218  0.733  0.462  0.714-  56 2.40   2 2.42  62 2.43
 219  0.733  0.466  0.373-  58 2.41  22 2.41  63 2.41
 220  0.866  0.132  0.543-  53 2.41  57 2.41  10 2.41
 221  0.933  0.066  0.373-  37 2.41  17 2.41  15 2.41
 222  0.666  0.532  0.543-  65 2.41  20 2.41  59 2.41
 223  0.532  0.863  0.626-  66 2.40  70 2.41  45 2.41
 224  0.733  0.666  0.287-  43 2.41  58 2.41  23 2.41
 225  0.544  0.488  0.726- 233 1.42 226 1.83  61 2.55  56 2.56  33 3.07
 226  0.566  0.535  0.773- 227 1.40 231 1.41 225 1.83
 227  0.645  0.542  0.792- 235 1.09 229 1.39 226 1.40
 228  0.498  0.556  0.829- 236 1.09 231 1.39 230 1.41
 229  0.651  0.556  0.830- 238 1.09 227 1.39 230 1.41
 230  0.577  0.562  0.849- 239 1.38 229 1.41 228 1.41
 231  0.492  0.542  0.792- 237 1.09 228 1.39 226 1.41
 232  0.536  0.592  0.899- 239 1.01
 233  0.492  0.385  0.723- 225 1.42  33 2.19
 234  0.644  0.592  0.900- 239 1.01
 235  0.702  0.535  0.778- 227 1.09
 236  0.440  0.561  0.844- 228 1.09
 237  0.429  0.536  0.777- 231 1.09
 238  0.713  0.561  0.845- 229 1.09
 239  0.580  0.571  0.887- 234 1.01 232 1.01 230 1.38
 
  LATTYP: Found a hexagonal cell.
 ALAT       =    15.8227971106
 C/A-ratio  =     2.3015723924
  
  Lattice vectors:
  
 A1 = (   7.9113990000, -13.7029440000,   0.0000000000)
 A2 = (   7.9113990000,  13.7029440000,   0.0000000000)
 A3 = (   0.0000000000,   0.0000000000,  36.4173130000)


Analysis of symmetry for initial positions (statically):
=====================================================================
 Subroutine PRICEL returns:
 Original cell was already a primitive cell.
 

 Routine SETGRP: Setting up the symmetry group for a 
 hexagonal supercell.


 Subroutine GETGRP returns: Found  1 space group operations
 (whereof  1 operations were pure point group operations)
 out of a pool of 24 trial point group operations.


The static configuration has the point symmetry C_1 .


Analysis of symmetry for dynamics (positions and initial velocities):
=====================================================================
 Subroutine PRICEL returns:
 Original cell was already a primitive cell.
 

 Routine SETGRP: Setting up the symmetry group for a 
 hexagonal supercell.


 Subroutine GETGRP returns: Found  1 space group operations
 (whereof  1 operations were pure point group operations)
 out of a pool of 24 trial point group operations.


The dynamic configuration has the point symmetry C_1 .


Analysis of constrained symmetry for selective dynamics:
=====================================================================
 Subroutine PRICEL returns:
 Original cell was already a primitive cell.
 

 Routine SETGRP: Setting up the symmetry group for a 
 hexagonal supercell.


 Subroutine GETGRP returns: Found  1 space group operations
 (whereof  1 operations were pure point group operations)
 out of a pool of 24 trial point group operations.


The constrained configuration has the point symmetry C_1 .


Analysis of structural, dynamic, and magnetic symmetry:
=====================================================================
 Subroutine PRICEL returns:
 Original cell was already a primitive cell.
 

 Routine SETGRP: Setting up the symmetry group for a 
 hexagonal supercell.


 Subroutine GETGRP returns: Found  1 space group operations
 (whereof  1 operations were pure point group operations)
 out of a pool of 24 trial point group operations.


The overall configuration has the point symmetry C_1 .


 Subroutine INISYM returns: Found  1 space group operations
 (whereof  1 operations are pure point group operations),
 and found     1 'primitive' translations


----------------------------------------------------------------------------------------

                                     Primitive cell                                     

  volume of cell :    7895.9623

  direct lattice vectors                    reciprocal lattice vectors
     7.911399000-13.702944000  0.000000000     0.063199947 -0.036488509  0.000000000
     7.911399000 13.702944000  0.000000000     0.063199947  0.036488509  0.000000000
     0.000000000  0.000000000 36.417313000     0.000000000  0.000000000  0.027459467

  length of vectors
    15.822797111 15.822797111 36.417313000     0.072977015  0.072977015  0.027459467

  position of ions in fractional coordinates (direct lattice)
     0.932696940  0.665443070  0.499751450
     0.865441870  0.531277550  0.670627980
     0.066154810  0.532657800  0.329791110
     0.065520750  0.531204390  0.670040250
     0.866786090  0.732149250  0.670022120
     0.132674960  0.665487170  0.499695390
     0.866218220  0.332723970  0.329842450
     0.065483450  0.731040000  0.669588140
     0.263900100  0.129964270  0.668066800
     0.932747520  0.065492650  0.499766270
     0.865542140  0.331232140  0.669859410
     0.132861780  0.465640590  0.499763250
     0.066212010  0.732726470  0.329766040
     0.065527290  0.331295860  0.670006360
     0.066196490  0.132665380  0.329803760
     0.132800700  0.265632050  0.499762190
     0.866104300  0.932714190  0.329754300
     0.865767320  0.931804750  0.669595340
     0.065381830  0.131109290  0.669239920
     0.732689480  0.665383340  0.499773830
     0.932639460  0.865392130  0.499731750
     0.866151490  0.532754990  0.329812790
     0.866189200  0.732739830  0.329805470
     0.266272650  0.132825440  0.329780300
     0.332668010  0.065406630  0.499655980
     0.132693720  0.865471180  0.499705550
     0.932748660  0.465489790  0.499722450
     0.065337070  0.931086820  0.669016010
     0.066200960  0.932750720  0.329709130
     0.066123860  0.332651610  0.329833380
     0.532766270  0.265483320  0.499741340
     0.132666250  0.065502480  0.499706940
     0.462920680  0.326026460  0.667586670
     0.266172270  0.332732320  0.329790000
     0.266015320  0.331076580  0.669913250
     0.865629110  0.131496770  0.669510070
     0.866187080  0.132754710  0.329831630
     0.332886920  0.465703200  0.499733260
     0.266111400  0.532700790  0.329795690
     0.265684720  0.531303120  0.670802630
     0.332840510  0.665588700  0.499759620
     0.332770140  0.265584910  0.499735930
     0.666114790  0.732667240  0.329758320
     0.265321430  0.731020670  0.669715790
     0.665736490  0.931742000  0.669601520
     0.666449890  0.732975760  0.670999670
     0.732725520  0.865393460  0.499813010
     0.332721600  0.865503270  0.499674790
     0.266141490  0.932789100  0.329756920
     0.265132360  0.930626330  0.668616130
     0.466206720  0.332728080  0.329789760
     0.266113430  0.732729960  0.329777610
     0.932814090  0.265576630  0.499731860
     0.666113350  0.932693020  0.329814290
     0.532821150  0.065546250  0.499663300
     0.665579110  0.532063850  0.673143190
     0.732788990  0.065484250  0.499762410
     0.666178400  0.532769720  0.329761390
     0.732736900  0.465502550  0.499777840
     0.466086030  0.532631120  0.329777150
     0.466435990  0.532233790  0.673284840
     0.664739190  0.330773110  0.669657170
     0.666218940  0.332718520  0.329804480
     0.532827440  0.665413090  0.499773280
     0.532719570  0.465455970  0.499719860
     0.465177730  0.732128910  0.670166720
     0.732813230  0.265500660  0.499710680
     0.532847120  0.865488920  0.499759090
     0.466055390  0.932640690  0.329822030
     0.465457370  0.930905470  0.669046180
     0.466243590  0.132701080  0.329790340
     0.665487890  0.130986570  0.669149800
     0.666148030  0.132622250  0.329821800
     0.466163800  0.732674130  0.329819170
     0.465644930  0.129613120  0.668018130
     0.533203030  0.467064290  0.630358480
     0.326985250  0.263007400  0.624432240
     0.266251310  0.532326870  0.542880170
     0.332702300  0.466027360  0.372883930
     0.329702730  0.462311540  0.714470230
     0.530725280  0.260960170  0.711504420
     0.466097290  0.532023390  0.542865090
     0.532875900  0.266043230  0.286754960
     0.535221160  0.262323530  0.624338550
     0.932749560  0.866020620  0.286718210
     0.466131110  0.532188670  0.456610370
     0.532711480  0.466072470  0.286705920
     0.066056240  0.732189120  0.542804190
     0.465992660  0.332065250  0.456621290
     0.133240130  0.464884730  0.627197160
     0.132914630  0.266063720  0.372909320
     0.066114920  0.532144800  0.456606700
     0.066119630  0.132230710  0.542828010
     0.132968910  0.065932540  0.372871600
     0.132771360  0.064511470  0.711919620
     0.066039160  0.132228250  0.456644870
     0.132969480  0.066135280  0.286688510
     0.129967350  0.063358360  0.625544970
     0.132736250  0.465854520  0.286754310
     0.066052750  0.332308190  0.542860370
     0.066202730  0.332358010  0.456684400
     0.132847830  0.266074400  0.286788680
     0.132742780  0.265918920  0.626738230
     0.066075530  0.532190350  0.542813380
     0.132828220  0.466021990  0.372899570
     0.131364280  0.464231430  0.713327660
     0.132102690  0.263588570  0.712729380
     0.466197160  0.732074760  0.542876240
     0.332805370  0.666054390  0.286762370
     0.532852060  0.669516570  0.714268080
     0.132794120  0.665964000  0.372868700
     0.931087420  0.863850450  0.626376620
     0.533113640  0.063007350  0.625535140
     0.466032810  0.132168530  0.456592640
     0.531482750  0.064385680  0.711853890
     0.532774470  0.065958160  0.372915120
     0.465917380  0.131997160  0.542730050
     0.331809850  0.862946510  0.625988330
     0.332751830  0.866134590  0.286705420
     0.265977480  0.932134390  0.456586430
     0.332064530  0.865596910  0.712122740
     0.332523690  0.866050090  0.372880150
     0.266055880  0.932108550  0.542794650
     0.331874430  0.663265700  0.627074740
     0.266060190  0.732140950  0.456612790
     0.331736430  0.665659440  0.713397760
     0.332743610  0.666020170  0.372920790
     0.466260030  0.732165370  0.456698570
     0.532771360  0.665958410  0.286708650
     0.531817260  0.662473160  0.628584240
     0.466144140  0.932329080  0.542733860
     0.532863080  0.866064750  0.372952220
     0.532368720  0.866549980  0.712686880
     0.532858930  0.665863310  0.372882860
     0.532935800  0.265999380  0.372891840
     0.466104710  0.332167860  0.542849680
     0.532827200  0.065935340  0.286768160
     0.266189330  0.532385810  0.456651040
     0.332700730  0.465989400  0.286723300
     0.337033830  0.467543530  0.628662280
     0.265938550  0.732158000  0.542766220
     0.532793810  0.866040240  0.286786690
     0.132275460  0.665068250  0.712839480
     0.666089050  0.732012150  0.542911400
     0.332041460  0.064433150  0.711109760
     0.732823320  0.065968310  0.372935560
     0.932913390  0.866213830  0.372844150
     0.933936160  0.866461960  0.712646550
     0.865917030  0.932060140  0.456701910
     0.666123250  0.132181730  0.542794000
     0.932897740  0.266089960  0.372981310
     0.933039910  0.666083010  0.372912740
     0.732201670  0.065217760  0.712489140
     0.932656960  0.065175380  0.712511830
     0.733701860  0.867767540  0.713156930
     0.732704150  0.865966290  0.372856650
     0.731700680  0.863693010  0.626853770
     0.866170440  0.532145550  0.542877570
     0.666186880  0.932184250  0.542876860
     0.932897120  0.466134480  0.372908220
     0.932424410  0.463973710  0.713204220
     0.732713780  0.866038390  0.286723920
     0.666248180  0.132148260  0.456606950
     0.732850490  0.065999130  0.286793540
     0.732648100  0.064552000  0.626250490
     0.666229970  0.932143470  0.456695100
     0.666201740  0.332103630  0.542849830
     0.732784160  0.265950210  0.372893050
     0.731263890  0.263627890  0.712535390
     0.866078100  0.132168950  0.456684390
     0.866194940  0.332146870  0.456615010
     0.931243120  0.663287130  0.626897770
     0.932876660  0.666103750  0.286728440
     0.732967940  0.265981460  0.286781690
     0.732939510  0.265528040  0.626517500
     0.865996970  0.732131390  0.456648880
     0.666139950  0.332240740  0.456667310
     0.931817910  0.264083790  0.712886300
     0.866092720  0.932004970  0.542865390
     0.932859550  0.066154620  0.286746920
     0.931889030  0.064780770  0.626291970
     0.933697220  0.665669530  0.713223710
     0.866017500  0.532148900  0.456673410
     0.066001450  0.732214890  0.456615080
     0.730341030  0.662380260  0.628484780
     0.666225580  0.732211900  0.456671520
     0.132770290  0.866165440  0.372830910
     0.132930490  0.865402780  0.712080260
     0.065920490  0.932092730  0.456641420
     0.132929870  0.866023260  0.286675100
     0.131123470  0.863216320  0.625891390
     0.266127890  0.132177650  0.542722980
     0.132746640  0.665948140  0.286716470
     0.065912190  0.932036560  0.542773160
     0.332950270  0.066068420  0.372874170
     0.332964750  0.066187750  0.286732390
     0.331154470  0.063008540  0.625130990
     0.266336290  0.332493350  0.542823580
     0.332821000  0.266163310  0.372904300
     0.330046550  0.260853530  0.711619750
     0.266182710  0.332381480  0.456683860
     0.332945940  0.266212360  0.286716010
     0.266049710  0.132226570  0.456628010
     0.131942200  0.663790410  0.626651230
     0.466194170  0.932210010  0.456610090
     0.532920740  0.466077100  0.372860290
     0.736589130  0.669334370  0.714210150
     0.732737610  0.666110410  0.372899860
     0.932818260  0.466096210  0.286788000
     0.931779810  0.465014200  0.627090690
     0.932720310  0.265393000  0.626657670
     0.866080900  0.332130860  0.542803000
     0.932831300  0.266082490  0.286769970
     0.866007130  0.732063420  0.542842590
     0.730336370  0.467454010  0.628434710
     0.732805170  0.465975650  0.286738540
     0.666106740  0.532127000  0.456662190
     0.732549890  0.462145890  0.714264990
     0.732774900  0.466132800  0.372932110
     0.866133340  0.132309990  0.542825070
     0.932680210  0.065904090  0.372887150
     0.665880120  0.532032020  0.542886050
     0.532373670  0.863496980  0.626396760
     0.732909230  0.666138930  0.286716470
     0.543654146  0.488087145  0.725721164
     0.565553710  0.534875483  0.772790081
     0.645019860  0.541595947  0.792435675
     0.497665286  0.556010187  0.829328684
     0.650850251  0.555678999  0.830227370
     0.576959799  0.562418837  0.849396610
     0.491822006  0.542064919  0.791569847
     0.536172292  0.592488733  0.899314416
     0.491996937  0.384903370  0.723396664
     0.644282191  0.592379908  0.900035537
     0.702464576  0.535239923  0.778304581
     0.439747231  0.561331815  0.843678460
     0.429011400  0.536033770  0.776747605
     0.713058402  0.560730144  0.845322029
     0.580033565  0.571162842  0.887093422

  ion indices of the primitive-cell ions
   primitive index   ion index
                 1           1
                 2           2
                 3           3
                 4           4
                 5           5
                 6           6
                 7           7
                 8           8
                 9           9
                10          10
                11          11
                12          12
                13          13
                14          14
                15          15
                16          16
                17          17
                18          18
                19          19
                20          20
                21          21
                22          22
                23          23
                24          24
                25          25
                26          26
                27          27
                28          28
                29          29
                30          30
                31          31
                32          32
                33          33
                34          34
                35          35
                36          36
                37          37
                38          38
                39          39
                40          40
                41          41
                42          42
                43          43
                44          44
                45          45
                46          46
                47          47
                48          48
                49          49
                50          50
                51          51
                52          52
                53          53
                54          54
                55          55
                56          56
                57          57
                58          58
                59          59
                60          60
                61          61
                62          62
                63          63
                64          64
                65          65
                66          66
                67          67
                68          68
                69          69
                70          70
                71          71
                72          72
                73          73
                74          74
                75          75
                76          76
                77          77
                78          78
                79          79
                80          80
                81          81
                82          82
                83          83
                84          84
                85          85
                86          86
                87          87
                88          88
                89          89
                90          90
                91          91
                92          92
                93          93
                94          94
                95          95
                96          96
                97          97
                98          98
                99          99
               100         100
               101         101
               102         102
               103         103
               104         104
               105         105
               106         106
               107         107
               108         108
               109         109
               110         110
               111         111
               112         112
               113         113
               114         114
               115         115
               116         116
               117         117
               118         118
               119         119
               120         120
               121         121
               122         122
               123         123
               124         124
               125         125
               126         126
               127         127
               128         128
               129         129
               130         130
               131         131
               132         132
               133         133
               134         134
               135         135
               136         136
               137         137
               138         138
               139         139
               140         140
               141         141
               142         142
               143         143
               144         144
               145         145
               146         146
               147         147
               148         148
               149         149
               150         150
               151         151
               152         152
               153         153
               154         154
               155         155
               156         156
               157         157
               158         158
               159         159
               160         160
               161         161
               162         162
               163         163
               164         164
               165         165
               166         166
               167         167
               168         168
               169         169
               170         170
               171         171
               172         172
               173         173
               174         174
               175         175
               176         176
               177         177
               178         178
               179         179
               180         180
               181         181
               182         182
               183         183
               184         184
               185         185
               186         186
               187         187
               188         188
               189         189
               190         190
               191         191
               192         192
               193         193
               194         194
               195         195
               196         196
               197         197
               198         198
               199         199
               200         200
               201         201
               202         202
               203         203
               204         204
               205         205
               206         206
               207         207
               208         208
               209         209
               210         210
               211         211
               212         212
               213         213
               214         214
               215         215
               216         216
               217         217
               218         218
               219         219
               220         220
               221         221
               222         222
               223         223
               224         224
               225         225
               226         226
               227         227
               228         228
               229         229
               230         230
               231         231
               232         232
               233         233
               234         234
               235         235
               236         236
               237         237
               238         238
               239         239

----------------------------------------------------------------------------------------

 
 
 KPOINTS: K-Points                                

Automatic generation of k-mesh.
 Grid dimensions read from file:
 generate k-points for:    3    3    1

 Generating k-lattice:

  Cartesian coordinates                     Fractional coordinates (reciprocal lattice)
     0.021066649 -0.012162836  0.000000000     0.333333333 -0.000000000  0.000000000
     0.021066649  0.012162836  0.000000000    -0.000000000  0.333333333  0.000000000
     0.000000000  0.000000000  0.027459467     0.000000000  0.000000000  1.000000000

  Length of vectors
     0.024325672  0.024325672  0.027459467

  Shift w.r.t. Gamma in fractional coordinates (k-lattice)
     0.000000000  0.000000000  0.000000000

 
 Subroutine IBZKPT returns following result:
 ===========================================
 
 Found      5 irreducible k-points:
 
 Following reciprocal coordinates:
            Coordinates               Weight
  0.000000  0.000000  0.000000      1.000000
  0.333333  0.000000  0.000000      2.000000
  0.000000  0.333333  0.000000      2.000000
 -0.333333  0.333333  0.000000      2.000000
  0.333333  0.333333  0.000000      2.000000
 
 Following cartesian coordinates:
            Coordinates               Weight
  0.000000  0.000000  0.000000      1.000000
  0.021067 -0.012163  0.000000      2.000000
  0.021067  0.012163  0.000000      2.000000
 -0.000000  0.024326  0.000000      2.000000
  0.042133  0.000000  0.000000      2.000000
 


--------------------------------------------------------------------------------------------------------




 Dimension of arrays:
   k-points           NKPTS =      5   k-points in BZ     NKDIM =      5   number of bands    NBANDS=   1312
   number of dos      NEDOS =    301   number of ions     NIONS =    239
   non local maximal  LDIM  =      6   non local SUM 2l+1 LMDIM =     18
   total plane-waves  NPLWV = ******
   max r-space proj   IRMAX =   3534   max aug-charges    IRDMAX=  11632
   dimension x,y,z NGX =    96 NGY =   96 NGZ =  224
   dimension x,y,z NGXF=   192 NGYF=  192 NGZF=  448
   support grid    NGXF=   192 NGYF=  192 NGZF=  448
   ions per type =              75 150   6   7   1
   NGX,Y,Z   is equivalent  to a cutoff of  10.09, 10.09, 10.23 a.u.
   NGXF,Y,Z  is equivalent  to a cutoff of  20.17, 20.17, 20.45 a.u.

 SYSTEM =  unknown system                          
 POSCAR =  Mo S  H  C  H  N                        

 Startparameter for this run:
   NWRITE =      2    write-flag & timer
   PREC   = normal    normal or accurate (medium, high low for compatibility)
   ISTART =      0    job   : 0-new  1-cont  2-samecut
   ICHARG =      2    charge: 1-file 2-atom 10-const
   ISPIN  =      2    spin polarized calculation?
   LNONCOLLINEAR =      F non collinear calculations
   LSORBIT =      F    spin-orbit coupling
   INIWAV =      1    electr: 0-lowe 1-rand  2-diag
   LASPH  =      T    aspherical Exc in radial PAW
 Electronic Relaxation 1
   ENCUT  =  600.0 eV  44.10 Ry    6.64 a.u.  31.60 31.60 72.73*2*pi/ulx,y,z
   ENINI  =  600.0     initial cutoff
   ENAUG  =  644.9 eV  augmentation charge cutoff
   NELM   =   2000;   NELMIN=  2; NELMDL= -5     # of ELM steps 
   EDIFF  = 0.1E-05   stopping-criterion for ELM
   LREAL  =      T    real-space projection
   NLSPLINE    = F    spline interpolate recip. space projectors
   LCOMPAT=      F    compatible to vasp.4.4
   GGA_COMPAT  = T    GGA compatible to vasp.4.4-vasp.4.6
   LMAXPAW     = -100 max onsite density
   LMAXMIX     =    2 max onsite mixed and CHGCAR
   VOSKOWN=      0    Vosko Wilk Nusair interpolation
   ROPT   =   -0.00050  -0.00050  -0.00050  -0.00050
   ROPT   =   -0.00050
 Ionic relaxation
   EDIFFG = -.5E-01   stopping-criterion for IOM
   NSW    =   5000    number of steps for IOM
   NBLOCK =      1;   KBLOCK =   5000    inner block; outer block 
   IBRION =     44    ionic relax: 0-MD 1-quasi-New 2-CG
   NFREE  =      0    steps in history (QN), initial steepest desc. (CG)
   ISIF   =      2    stress and relaxation
   IWAVPR =     11    prediction:  0-non 1-charg 2-wave 3-comb
   ISYM   =      2    0-nonsym 1-usesym 2-fastsym
   LCORR  =      T    Harris-Foulkes like correction to forces

   POTIM  = 0.0150    time-step for ionic-motion
   TEIN   = ******    initial temperature
   TEBEG  =    0.0;   TEEND  =   0.0 temperature during run
   SMASS  =  -3.00    Nose mass-parameter (am)
   estimated Nose-frequenzy (Omega)   =  0.10E-29 period in steps = 0.42E+48 mass=  -0.572E-26a.u.
   SCALEE = 1.0000    scale energy and forces
   NPACO  =    256;   APACO  = 10.0  distance and # of slots for P.C.
   PSTRESS=    0.0 pullay stress

  Mass of Ions in am
   POMASS =  95.94 32.07 12.01  1.00 14.00
  Ionic Valenz
   ZVAL   =  14.00  6.00  4.00  1.00  5.00
  Atomic Wigner-Seitz radii
   RWIGS  =  -1.00 -1.00 -1.00 -1.00 -1.00
[...]
  269          phaser                                0.085691                          9   4
  270          rpro_isp                             19.568559                          9   4
  271            fftwav_mpi                           14.366486                     2952   5
  272              fft3d_mpi                            12.794533                   2952   6
  273                fftbas_mpi                           12.782024                 2952   7
  274                  fftbas_plan_mpi                      12.773577               2952   8
  275                    dfftw_execute                         6.295593             8856   9
  276                    map_forward                           4.979052             5904   9
  277                      map_gather                            1.158933           2952  10
  278                      m_alltoallv_z                         1.334717           2952  10
  279                      map_scatter                           1.436270           2952  10
  280            rpromu                                5.180384                      738   5
  281              crrexp_mul_wave                       1.781398                 702576   6
  282              rpromu_gemm                           1.798923                 175644   6
  283              m_sumb_d                              0.301104                   2952   6
  284          m_sumb_d                              0.476573                         10   4
  285        m_sumb_d                              0.002580                            7   3
  286        fft3d_mpi                             0.733673                           82   3
  287          fftbrc_mpi                            0.693247                         82   4
  288            fftbas_plan_mpi                       0.692982                       82   5
  289              dfftw_execute                         0.163881                    246   6
  290              map_forward                           0.264696                     80   6
  291                map_gather                            0.023493                   40   7
  292                m_alltoallv_z                         0.212344                   40   7
  293                map_scatter                           0.028122                   40   7
  294              map_backward                          0.213629                     84   6
  295                map_gather                            0.025171                   42   7
  296                m_alltoallv_z                         0.156910                   42   7
  297                map_scatter                           0.030705                   42   7
  298        forhar                                1.224348                            2   3
  299          m_sumb_d                              0.000291                          2   4
  300        strehar                               0.015145                            1   3
  301          m_sumb_d                              0.000315                          1   4
  302        chggra                                0.033845                            1   3
  303          fft3d_mpi                             0.024381                          3   4
  304            fftbrc_mpi                            0.022933                        3   5
  305              fftbas_plan_mpi                       0.022924                      3   6
  306                dfftw_execute                         0.006235                    9   7
  307                map_backward                          0.004832                    2   7
  308                  map_gather                            0.000643                  1   8
  309                  m_alltoallv_z                         0.003540                  1   8
  310                  map_scatter                           0.000623                  1   8
  311                map_forward                           0.010039                    4   7
  312                  map_gather                            0.001072                  2   8
  313                  m_alltoallv_z                         0.007538                  2   8
  314                  map_scatter                           0.001388                  2   8
  315          m_sumb_d                              0.000109                          2   4
  316          pothar                                0.001810                          1   4
  317            m_sumb_d                              0.000442                        1   5
  318        brmix                                 0.073085                            1   3
  319          m_sumb_d                              0.001003                          6   4
  320          brpre                                 0.000185                          2   4
  321          setg0                                 0.004750                          1   4
  322          broyd                                 0.047828                          1   4
  323            brget                                 0.009298                      366   5
  324            brsav                                 0.005640                      163   5
  325            m_sumb_d                              0.003506                       47   5
  326          m_bcast_z                             0.012670                          1   4
  327          m_bcast_d                             0.000145                          1   4
  328        m_bcast_d                             0.001492                            2   3
  329      potlok                                5.803664                              1   2
  330        fft3d_mpi                             0.778146                           86   3
  331          fftbrc_mpi                            0.736190                         86   4
  332            fftbas_plan_mpi                       0.735940                       86   5
  333              dfftw_execute                         0.169858                    258   6
  334              map_forward                           0.298397                     88   6
  335                map_gather                            0.021796                   46   7
  336                m_alltoallv_z                         0.243828                   46   7
  337                map_scatter                           0.031939                   46   7
  338              map_backward                          0.214704                     84   6
  339                map_gather                            0.025158                   42   7
  340                m_alltoallv_z                         0.159136                   42   7
  341                map_scatter                           0.029562                   42   7
  342        m_sumb_d                              0.001211                            8   3
  343        fewald                                0.001575                            2   3
  344          rsp                                   0.001467                          2   4
  345          rcp                                   0.000093                          2   4
  346        pothar                                0.002397                            1   3
  347          m_sumb_d                              0.001082                          1   4
  348        m_bcast_d                             0.005806                            2   3
  349      potlok_metagga                        0.000001                              1   2
  350      set_dd_magatom                        0.000001                              1   2
  351      set_dd_paw                            2.805101                              1   2
  352        set_rsgf_all                          0.000001                            1   3
  353        m_sumb_d                              2.804764                            8   3
  354      densta                                0.003168                              1   2
  355        m_sumb_d                              0.002062                           10   3
 
 Flat profile
 ============
 
             routine name                   CPU           calls
 ---------------------------------------------------------------
 ggemm                                8043.142204      306247
 eddav                                4968.262720         215
 orth1                                2905.127920      707263
 dfftw_execute                        1532.913205     2139000
 potlok                               1072.350731         212
 m_sumb_d                             1062.742278     1683327
 m_alltoall_d                          884.527476     1722249
 m_alltoallv_z                         574.007420      713846
 total_time                            493.104726           1
 lincom                                417.553375         432
 fftbas_plan_mpi                       388.612091      713000
 map_scatter                           338.965184      713846
 racc0                                 338.130577      235727
 map_gather                            332.901419      713846
 fftwav_mpi                            245.719399      458111
 rpro1                                 245.221501      165207
 crrexp_mul_work_add                   216.631924    56103026
 lapack                                175.444752      235727
 map_forward                           164.068406      934964
 vhamil                                148.806606      235727
 crrexp_mul_wave                       111.756249    40334098
 m_bcast_z                              84.311736      250916
 redis_pw                               55.306911      637525
 w1_copy                                48.241424      707181
 eccp                                   41.041474       70520
 fftext_mpi                             40.149900      235727
 pw_charge                              29.661720       52913
 m_bcast_d                              25.586921      472095
 kinhamil                               19.386744      235727
 apply_precond                          14.549412      165207
 overl                                  13.718804      400936
 redis_proj                             13.342615      802734
 setup_precond                          12.501303       70520
 fft3d_mpi                              12.182730      713000
 augmentation_charge                    11.404029         211
 setdij_                                10.446615         239
 overl1                                  8.868368      235727
 broyd                                   5.941734         211
 force_and_stress                        5.072987           1
 map_backward                            4.730903      491036
 phaser                                  4.230933         443
 hamiltmu                                3.729950      235727
 elmin                                   3.386404           1
 newband                                 2.911630      236157
 rpromu_gemm                             2.605584      253708
 raccmu_                                 2.341627      235727
 fftbas_mpi                              2.114843      693838
 rpromu                                  1.875459        1066
 brmix                                   1.677939         211
 brget                                   1.360472       53001
 forhar                                  1.224057           2
 soft_charge                             1.072731         211
 setg0                                   1.013057         213
 w1_projall                              0.881844      165207
 depsum                                  0.864934         211
 densta                                  0.654611         216
 forloc                                  0.612654           1
 choleski                                0.562090           2
 brsav                                   0.482305       13035
 rspher_all                              0.467608          14
 set_charge                              0.421776         211
 stufak                                  0.385546           1
 truncate_high_frequency_w1              0.332201      306247
 rsp                                     0.324646         425
 pothar                                  0.276903         213
 fft_gq                                  0.083067         211
 inisym                                  0.064034           1
 set_dd_paw                              0.062378         213
 fftbrc_mpi                              0.059665       19162
 strnlr                                  0.055268           1
 brpre                                   0.049460         422
 rpro_isp                                0.038503          13
 orthch                                  0.034667           1
 strkin                                  0.030624           1
 rcp                                     0.021469         425
 fornlr                                  0.019471           1
 strehar                                 0.014830           1
 strelo                                  0.014251           1
 fewald                                  0.010667         425
 chggra                                  0.007545           1
 brgrid                                  0.001264           1
 potlok_metagga                          0.000515         212
 set_rsgf_all                            0.000474         213
 vectorpot                               0.000362         212
 set_dd_magatom                          0.000346         213
 fordep                                  0.000306           1
 crpa_reader                             0.000248           1
 posmap                                  0.000114           2
 proall                                  0.000080           1
 rotate_active_occupied_orbital          0.000013           1
 redis_pw_over_bands                     0.000002           1
 ---------------------------------------------------------------
  summed up times    25152.8179221153     
 
 Accumulative profile
 ====================
 
             routine name                   CPU           calls
 ---------------------------------------------------------------
 total_time                          25152.817922           1
 elmin                               24540.975496           1
 eddav                               22358.036566         215
 ggemm                                8043.142204      306247
 fft3d_mpi                            3350.555865      713000
 fftbas_plan_mpi                      3336.198627      713000
 fftbas_mpi                           3181.838156      693838
 orth1                                2905.127920      707263
 fftwav_mpi                           2460.940703      458111
 hamiltmu                             1812.636529      235727
 dfftw_execute                        1532.913205     2139000
 potlok                               1235.711515         212
 m_sumb_d                             1062.742278     1683327
 map_forward                          1031.334641      934964
 kinhamil                             1029.113723      235727
 fftext_mpi                           1009.726979      235727
 m_alltoall_d                          884.527476     1722249
 redis_pw                              762.432737      637525
 raccmu_                               630.986251      235727
 racc0                                 619.776256      235727
 set_dd_paw                            607.393340         213
 m_alltoallv_z                         574.007420      713846
 newband                               485.709384      236157
 lincom                                417.553375         432
 map_backward                          383.338690      491036
 w1_projall                            381.751837      165207
 rpro1                                 380.869993      165207
 map_scatter                           338.965184      713846
 map_gather                            332.901419      713846
 set_charge                            320.328270         211
 soft_charge                           302.286291         211
 crrexp_mul_work_add                   216.631924    56103026
 redis_proj                            190.744264      802734
 lapack                                175.444752      235727
 fftbrc_mpi                            156.534979       19162
 vhamil                                148.806606      235727
 crrexp_mul_wave                       111.756249    40334098
 m_bcast_z                              84.311736      250916
 w1_copy                                48.241424      707181
 eccp                                   45.543616       70520
 force_and_stress                       40.852053           1
 pw_charge                              29.661720       52913
 rpro_isp                               28.297069          13
 m_bcast_d                              25.586921      472095
 strnlr                                 20.499571           1
 augmentation_charge                    16.198415         211
 apply_precond                          14.549412      165207
 setup_precond                          14.417512       70520
 brmix                                  14.398996         211
 overl                                  13.718804      400936
 setdij_                                12.056590         239
 overl1                                  8.868368      235727
 broyd                                   8.485567         211
 rpromu                                  7.502837        1066
 fornlr                                  6.858520           1
 phaser                                  4.230933         443
 orthch                                  3.669768           1
 densta                                  3.563467         216
 rpromu_gemm                             2.605584      253708
 proall                                  2.225451           1
 fft_gq                                  1.765223         211
 depsum                                  1.421789         211
 brget                                   1.360472       53001
 forhar                                  1.224348           2
 setg0                                   1.013057         213
 forloc                                  0.612797           1
 choleski                                0.562090           2
 fewald                                  0.487211         425
 brsav                                   0.482305       13035
 rspher_all                              0.467608          14
 pothar                                  0.413829         213
 stufak                                  0.385546           1
 truncate_high_frequency_w1              0.332201      306247
 rsp                                     0.324646         425
 fordep                                  0.302169           1
 inisym                                  0.064148           1
 brpre                                   0.049460         422
 chggra                                  0.033845           1
 strkin                                  0.032090           1
 rcp                                     0.021469         425
 strehar                                 0.015145           1
 strelo                                  0.014786           1
 brgrid                                  0.001264           1
 potlok_metagga                          0.000515         212
 set_rsgf_all                            0.000474         213
 vectorpot                               0.000362         212
 set_dd_magatom                          0.000346         213
 crpa_reader                             0.000248           1
 posmap                                  0.000114           2
 rotate_active_occupied_orbital          0.000013           1
 redis_pw_over_bands                     0.000002           1
 ---------------------------------------------------------------
 
Profiling took  59.120121 34.785685  0.009530  0.008839 seconds
Profiling took  59.155278 seconds
