 vasp.6.3.2 27Jun22 (build Jan 03 2024 23:05:41) complex                        
  
 executed on           IFC15_impi date 2024.07.31  10:37:07
 running  512 mpi-ranks, with    1 threads/rank
 distrk:  each k-point on   64 cores,    8 groups
 distr:  one band on NCORE=  16 cores,    4 groups


--------------------------------------------------------------------------------------------------------


 INCAR:
   ENCUT = 600.00
   EDIFF = 1.00e-06
   ALGO = Normal
   ISMEAR = -5
   LORBIT = 11
   ICHARG = 11
   EMIN = -8.
   EMAX = 5.
   NEDOS = 3000
   LCHARG = .TRUE.
   LWAVE = .FALSE.
   LREAL = Auto
   NELM = 2000
   NCORE = 16
   KPAR = 8
   ISPIN = 2
   GGA = MK
   PARAM1 = 0.1234
   PARAM2 = 1.0
   AGGAC = 0.0
   LUSE_VDW = .TRUE.
   LASPH = .TRUE.
   LDIPOL = .TRUE.
   DIPOL = 0.5 0.5 0.5
   IDIPOL = 3

 POTCAR:    PAW_PBE Mo_sv 02Feb2006               
 POTCAR:    PAW_PBE S 06Sep2000                   
 -----------------------------------------------------------------------------
|                                                                             |
|           W    W    AA    RRRRR   N    N  II  N    N   GGGG   !!!           |
|           W    W   A  A   R    R  NN   N  II  NN   N  G    G  !!!           |
|           W    W  A    A  R    R  N N  N  II  N N  N  G       !!!           |
|           W WW W  AAAAAA  RRRRR   N  N N  II  N  N N  G  GGG   !            |
|           WW  WW  A    A  R   R   N   NN  II  N   NN  G    G                |
|           W    W  A    A  R    R  N    N  II  N    N   GGGG   !!!           |
|                                                                             |
|     You use a magnetic or noncollinear calculation, but did not specify     |
|     the initial magnetic moment with the MAGMOM tag. Note that a            |
|     default of 1 will be used for all atoms. This ferromagnetic setup       |
|     may break the symmetry of the crystal, in particular it may rule        |
|     out finding an antiferromagnetic solution. Thence, we recommend         |
|     setting the initial magnetic moment manually or verifying carefully     |
|     that this magnetic setup is desired.                                    |
|                                                                             |
 -----------------------------------------------------------------------------

 -----------------------------------------------------------------------------
|                                                                             |
|               ----> ADVICE to this user running VASP <----                  |
|                                                                             |
|     You have switched on vdW-DFT.                                           |
|     This routine was written and supplied by Jiri Klimes. We recommend      |
|     that you carefully read and cite the following publications:            |
|       J. Klimes, D.R. Bowler, A. Michelides                                 |
|          J. Phys.: Cond Matt. 22 022201 (2010)                              |
|       J. Klimes, D.R. Bowler, A. Michelides                                 |
|          Phys. Rev. B. 83, 195131 (2011)                                    |
|     and references therein.                                                 |
|                                                                             |
 -----------------------------------------------------------------------------

 POTCAR:    PAW_PBE Mo_sv 02Feb2006               
   SHA256 =  2731df97e41766cc617548c5a8267718fdef1f509ac6bafa01e745abea2bdfaa Mo_sv/POTCAR          
   COPYR  = (c) Copyright 02Feb2006 Georg Kresse                                                    
   COPYR  = This file is part of the software VASP. Any use, copying, and all other rights are regul
   COPYR  = If you do not have a valid VASP license, you may not use, copy or distribute this file. 
   VRHFIN =Mo: 4p5s4d                                                                               
   LEXCH  = PE                                                                                      
   EATOM  =  1862.2866 eV,  136.8742 Ry                                                             
                                                                                                    
   TITEL  = PAW_PBE Mo_sv 02Feb2006                                                                 
   LULTRA =        F    use ultrasoft PP ?                                                          
   IUNSCR =        1    unscreen: 0-lin 1-nonlin 2-no                                               
   RPACOR =    2.200    partial core radius                                                         
   POMASS =   95.940; ZVAL   =   14.000    mass and valenz                                          
   RCORE  =    2.500    outmost cutoff radius                                                       
   RWIGS  =    2.750; RWIGS  =    1.455    wigner-seitz radius (au A)                               
   ENMAX  =  242.676; ENMIN  =  182.007 eV                                                          
   ICORE  =        3    local potential                                                             
   LCOR   =        T    correct aug charges                                                         
   LPAW   =        T    paw PP                                                                      
   EAUG   =  446.014                                                                                
   DEXC   =    0.000                                                                                
   RMAX   =    2.563    core radius for proj-oper                                                   
   RAUG   =    1.300    factor for augmentation sphere                                              
   RDEP   =    2.641    radius for radial grids                                                     
   RDEPT  =    2.031    core radius for aug-charge                                                  
                                                                                                    
   Atomic configuration                                                                             
   11 entries                                                                                       
     n  l   j            E        occ.                                                              
     1  0  0.50    -19819.0341   2.0000                                                             
     2  0  0.50     -2799.0127   2.0000                                                             
     2  1  1.50     -2502.0276   6.0000                                                             
     3  0  0.50      -476.4449   2.0000                                                             
     3  1  1.50      -379.1496   6.0000                                                             
     3  2  2.50      -220.9367  10.0000                                                             
     4  0  0.50       -64.3378   2.0000                                                             
     5  0  0.50        -4.0862   1.0000                                                             
     4  1  1.50       -38.4773   6.0000                                                             
     4  2  2.50        -3.7535   5.0000                                                             
     4  3  2.50        -1.3606   0.0000                                                             
   Description                                                                                      
     l       E           TYP  RCUT    TYP  RCUT                                                     
     0    -64.3377829     23  2.100                                                                 
     0     -4.0861640     23  2.400                                                                 
     1    -38.4772993     23  2.100                                                                 
     1     13.6058260     23  2.100                                                                 
     2     -3.7534941     23  2.400                                                                 
     2     -5.1140767     23  2.400                                                                 
     3     -4.0817478     23  2.500                                                                 
  local pseudopotential read in
  partial core-charges read in
  partial kinetic energy density read in
  atomic valenz-charges read in
  non local Contribution for L=           0  read in
    real space projection operators read in
  non local Contribution for L=           0  read in
    real space projection operators read in
  non local Contribution for L=           1  read in
    real space projection operators read in
  non local Contribution for L=           1  read in
    real space projection operators read in
  non local Contribution for L=           2  read in
    real space projection operators read in
  non local Contribution for L=           2  read in
    real space projection operators read in
    PAW grid and wavefunctions read in
 
   number of l-projection  operators is LMAX  =           6
   number of lm-projection operators is LMMAX =          18
 
 POTCAR:    PAW_PBE S 06Sep2000                   
   SHA256 =  0fc7481fb0695f01bdc6462160264c5c84044ae9ec85a907d398b887a2bc3132 S/POTCAR              
   COPYR  = (c) Copyright 06Sep2000 Georg Kresse                                                    
   COPYR  = This file is part of the software VASP. Any use, copying, and all other rights are regul
   COPYR  = If you do not have a valid VASP license, you may not use, copy or distribute this file. 
   VRHFIN =S : s2p4                                                                                 
   LEXCH  = PE                                                                                      
   EATOM  =   276.8230 eV,   20.3459 Ry                                                             
                                                                                                    
   TITEL  = PAW_PBE S 06Sep2000                                                                     
   LULTRA =        F    use ultrasoft PP ?                                                          
   IUNSCR =        1    unscreen: 0-lin 1-nonlin 2-no                                               
   RPACOR =    1.500    partial core radius                                                         
   POMASS =   32.066; ZVAL   =    6.000    mass and valenz                                          
   RCORE  =    1.900    outmost cutoff radius                                                       
   RWIGS  =    2.200; RWIGS  =    1.164    wigner-seitz radius (au A)                               
   ENMAX  =  258.689; ENMIN  =  194.016 eV                                                          
   ICORE  =        2    local potential                                                             
   LCOR   =        T    correct aug charges                                                         
   LPAW   =        T    paw PP                                                                      
   EAUG   =  335.092                                                                                
   DEXC   =    0.000                                                                                
   RMAX   =    1.942    core radius for proj-oper                                                   
   RAUG   =    1.300    factor for augmentation sphere                                              
   RDEP   =    1.954    radius for radial grids                                                     
   RDEPT  =    1.744    core radius for aug-charge                                                  
                                                                                                    
   Atomic configuration                                                                             
    6 entries                                                                                       
     n  l   j            E        occ.                                                              
     1  0  0.50     -2405.8406   2.0000                                                             
     2  0  0.50      -211.7007   2.0000                                                             
     2  1  1.50      -156.4958   6.0000                                                             
     3  0  0.50       -17.2562   2.0000                                                             
     3  1  0.50        -7.0085   4.0000                                                             
     3  2  1.50        -6.8029   0.0000                                                             
   Description                                                                                      
     l       E           TYP  RCUT    TYP  RCUT                                                     
     0    -17.2561641     23  1.900                                                                 
     0    -15.8743224     23  1.900                                                                 
     1     -7.0085400     23  1.900                                                                 
     1     -2.7779785     23  1.900                                                                 
     2     -6.8029130     23  1.900                                                                 
  local pseudopotential read in
  partial core-charges read in
  partial kinetic energy density read in
  atomic valenz-charges read in
  non local Contribution for L=           0  read in
    real space projection operators read in
  non local Contribution for L=           0  read in
    real space projection operators read in
  non local Contribution for L=           1  read in
    real space projection operators read in
  non local Contribution for L=           1  read in
    real space projection operators read in
    PAW grid and wavefunctions read in
 
   number of l-projection  operators is LMAX  =           4
   number of lm-projection operators is LMMAX =           8
 
 Optimization of the real space projectors (new method)

 maximal supplied QI-value         = 15.12
 optimisation between [QCUT,QGAM] = [ 12.55, 25.10] = [ 44.09,176.36] Ry 
 Optimized for a Real-space Cutoff    1.47 Angstroem

   l    n(q)    QCUT    max X(q) W(low)/X(q) W(high)/X(q)  e(spline) 
   0     11    12.548     3.559    0.18E-04    0.60E-05    0.19E-06
   0     11    12.548    20.730    0.37E-04    0.13E-04    0.98E-07
   1     11    12.548     3.279    0.80E-06    0.70E-06    0.27E-07
   1     11    12.548     4.693    0.72E-04    0.11E-03    0.38E-06
   2     10    12.548    67.616    0.34E-03    0.45E-03    0.54E-06
   2     10    12.548    62.420    0.34E-03    0.45E-03    0.54E-06
 Optimization of the real space projectors (new method)

 maximal supplied QI-value         = 19.84
 optimisation between [QCUT,QGAM] = [ 12.50, 25.00] = [ 43.76,175.03] Ry 
 Optimized for a Real-space Cutoff    1.06 Angstroem

   l    n(q)    QCUT    max X(q) W(low)/X(q) W(high)/X(q)  e(spline) 
   0      8    12.501   187.594    0.26E-03    0.17E-03    0.97E-07
   0      8    12.501   164.243    0.26E-03    0.17E-03    0.96E-07
   1      7    12.501    67.533    0.50E-03    0.61E-03    0.91E-07
   1      7    12.501    50.729    0.48E-03    0.60E-03    0.90E-07
 -----------------------------------------------------------------------------
|                                                                             |
|               ----> ADVICE to this user running VASP <----                  |
|                                                                             |
|     You enforced a specific xc type in the INCAR file but a different       |
|     type was found in the POTCAR file.                                      |
|     I HOPE YOU KNOW WHAT YOU ARE DOING!                                     |
|                                                                             |
 -----------------------------------------------------------------------------

  PAW_PBE Mo_sv 02Feb2006               :
 energy of atom  1       EATOM=-1862.2866
 kinetic energy error for atom=    0.0041 (will be added to EATOM!!)
  PAW_PBE S 06Sep2000                   :
 energy of atom  2       EATOM= -276.8230
 kinetic energy error for atom=    0.0009 (will be added to EATOM!!)
 
 
 POSCAR: Mo S
  positions in direct lattice
  velocities in cartesian coordinates
 exchange correlation table for  LEXCH =       43
   RHO(1)=    0.500       N(1)  =     2000
   RHO(2)=  100.500       N(2)  =     4000

 VTST: version 4.1, (05/19/21)

 CHAIN: initializing optimizer
 
 OPT: Using VASP Dynamics algorithm
 CHAIN: Read ICHAIN            0
 
 POSCAR: Mo S
  positions in direct lattice
  velocities in cartesian coordinates
 


--------------------------------------------------------------------------------------------------------


 ion  position               nearest neighbor table
   1  0.665  0.731  0.499-  64 2.39  40 2.39  37 2.41  65 2.41  39 2.41  36 2.42  13 3.13  14 3.13
                            11 3.16  19 3.16   3 3.19  23 3.19
   2  0.267  0.934  0.501-  49 2.41  71 2.41  48 2.41  47 2.41  70 2.41  51 2.41  25 3.17  10 3.17
                             4 3.17  18 3.17  17 3.17   8 3.17
   3  0.666  0.933  0.500-  45 2.40  66 2.41  36 2.41  37 2.41  33 2.41  32 2.41  10 3.16  23 3.17
                            11 3.17   6 3.17   9 3.18   1 3.19
   4  0.267  0.733  0.501-  69 2.41  46 2.41  71 2.41  52 2.41  70 2.41  68 2.41  10 3.17  20 3.17
                            18 3.17   2 3.17  11 3.17   5 3.17
   5  0.268  0.533  0.500-  69 2.40  68 2.41  58 2.41  57 2.41  67 2.42  60 2.43  11 3.15   7 3.16
                            22 3.17   4 3.17  20 3.18  13 3.20
   6  0.867  0.133  0.500-  35 2.41  33 2.41  29 2.41  30 2.41  32 2.41  42 2.41   9 3.17  24 3.17
                            23 3.17  16 3.17  22 3.17   3 3.17
   7  0.269  0.335  0.499-  60 2.39  50 2.39  56 2.41  67 2.41  59 2.41  55 2.42  13 3.13  15 3.13
                             5 3.16  17 3.16  22 3.19  24 3.19
   8  0.467  0.134  0.500-  49 2.40  51 2.41  73 2.41  72 2.41  62 2.42  61 2.43  17 3.15  12 3.16
                             9 3.17   2 3.17  10 3.18  15 3.20
   9  0.666  0.134  0.500-  73 2.40  72 2.41  26 2.41  28 2.41  33 2.41  32 2.41  10 3.16  16 3.17
                             8 3.17   6 3.17   3 3.18  12 3.19
  10  0.467  0.933  0.501-  71 2.41  70 2.41  45 2.41  73 2.41  66 2.41  72 2.41   3 3.16   9 3.16
                             4 3.17   2 3.17  11 3.18   8 3.18
  11  0.467  0.732  0.500-  69 2.40  68 2.41  45 2.41  66 2.41  65 2.42  64 2.43   5 3.15   1 3.16
                             3 3.17   4 3.17  10 3.18  13 3.20
  12  0.665  0.335  0.499-  61 2.39  44 2.39  28 2.41  43 2.41  62 2.41  26 2.42  15 3.13  14 3.13
                             8 3.16  21 3.16  16 3.19   9 3.19
  13  0.469  0.531  0.497-  63 2.38  67 2.39  65 2.39  60 2.40  64 2.40  14 3.06  15 3.06   7 3.13
                             1 3.13   5 3.20  11 3.20
  14  0.662  0.531  0.497-  63 2.38  39 2.39  43 2.39  40 2.40  44 2.40  13 3.06  15 3.06  12 3.13
                             1 3.13  21 3.20  19 3.20
  15  0.469  0.338  0.497-  63 2.38  59 2.39  62 2.39  50 2.40  61 2.40  13 3.06  14 3.06  12 3.13
                             7 3.13   8 3.20  17 3.20
  16  0.866  0.334  0.500-  41 2.40  38 2.41  26 2.41  28 2.41  29 2.41  42 2.41  20 3.16   9 3.17
                            21 3.17   6 3.17  22 3.18  12 3.19
  17  0.268  0.134  0.500-  49 2.40  51 2.41  54 2.41  53 2.41  59 2.42  50 2.43   8 3.15   7 3.16
                            24 3.17   2 3.17  25 3.18  15 3.20
  18  0.066  0.733  0.501-  27 2.41  46 2.41  48 2.41  47 2.41  52 2.41  31 2.41  25 3.17  20 3.17
                             4 3.17   2 3.17  19 3.17  21 3.17
  19  0.866  0.732  0.500-  27 2.40  31 2.41  74 2.41  34 2.41  39 2.42  40 2.43  21 3.15   1 3.16
                            23 3.17  18 3.17  25 3.18  14 3.20
  20  0.067  0.533  0.501-  46 2.41  52 2.41  58 2.41  41 2.41  57 2.41  38 2.41  22 3.16  16 3.16
                             4 3.17  18 3.17   5 3.18  21 3.18
  21  0.866  0.533  0.500-  27 2.40  31 2.41  41 2.41  38 2.41  43 2.42  44 2.43  19 3.15  12 3.16
                            16 3.17  18 3.17  20 3.18  14 3.20
  22  0.067  0.334  0.500-  58 2.40  57 2.41  55 2.41  56 2.41  29 2.41  42 2.41  20 3.16  24 3.17
                             5 3.17   6 3.17  16 3.18   7 3.19
  23  0.866  0.933  0.500-  74 2.40  34 2.41  36 2.41  37 2.41  35 2.41  30 2.41  25 3.16   3 3.17
                            19 3.17   6 3.17  24 3.18   1 3.19
  24  0.067  0.134  0.500-  54 2.40  53 2.41  55 2.41  56 2.41  35 2.41  30 2.41  25 3.16  22 3.17
                            17 3.17   6 3.17  23 3.18   7 3.19
  25  0.067  0.933  0.501-  48 2.41  47 2.41  54 2.41  74 2.41  34 2.41  53 2.41  23 3.16  24 3.16
                             2 3.17  18 3.17  17 3.18  19 3.18
  26  0.732  0.268  0.567-  16 2.41   9 2.41  12 2.42
  27  0.934  0.667  0.433-  21 2.40  19 2.40  18 2.41
  28  0.733  0.267  0.432-  16 2.41   9 2.41  12 2.41
  29  0.933  0.267  0.568-   6 2.41  16 2.41  22 2.41
  30  0.934  0.066  0.433-   6 2.41  23 2.41  24 2.41
  31  0.932  0.666  0.569-  21 2.41  19 2.41  18 2.41
  32  0.733  0.066  0.433-   6 2.41   9 2.41   3 2.41
  33  0.733  0.067  0.568-   6 2.41   9 2.41   3 2.41
  34  0.932  0.866  0.568-  23 2.41  19 2.41  25 2.41
  35  0.933  0.067  0.568-   6 2.41  24 2.41  23 2.41
  36  0.732  0.864  0.567-   3 2.41  23 2.41   1 2.42
  37  0.733  0.867  0.432-   3 2.41  23 2.41   1 2.41
  38  0.932  0.466  0.568-  16 2.41  21 2.41  20 2.41
  39  0.734  0.665  0.431-  14 2.39   1 2.41  19 2.42
  40  0.727  0.661  0.566-   1 2.39  14 2.40  19 2.43
  41  0.934  0.467  0.433-  16 2.40  20 2.41  21 2.41
  42  0.934  0.267  0.433-   6 2.41  16 2.41  22 2.41
  43  0.734  0.468  0.431-  14 2.39  12 2.41  21 2.42
  44  0.727  0.466  0.566-  12 2.39  14 2.40  21 2.43
  45  0.533  0.866  0.433-   3 2.40  10 2.41  11 2.41
  46  0.133  0.667  0.434-  20 2.41  18 2.41   4 2.41
  47  0.133  0.867  0.569-  25 2.41   2 2.41  18 2.41
  48  0.133  0.867  0.434-  25 2.41   2 2.41  18 2.41
  49  0.333  0.066  0.433-   8 2.40  17 2.40   2 2.41
  50  0.339  0.273  0.566-   7 2.39  15 2.40  17 2.43
  51  0.334  0.068  0.569-   8 2.41  17 2.41   2 2.41
  52  0.133  0.666  0.569-  20 2.41   4 2.41  18 2.41
  53  0.134  0.068  0.568-  24 2.41  17 2.41  25 2.41
  54  0.134  0.066  0.433-  24 2.40  25 2.41  17 2.41
  55  0.136  0.268  0.567-  22 2.41  24 2.41   7 2.42
  56  0.133  0.267  0.432-  22 2.41  24 2.41   7 2.41
  57  0.134  0.466  0.568-  22 2.41   5 2.41  20 2.41
  58  0.134  0.467  0.433-  22 2.40  20 2.41   5 2.41
  59  0.335  0.266  0.431-  15 2.39   7 2.41  17 2.42
  60  0.339  0.466  0.566-   7 2.39  13 2.40   5 2.43
  61  0.534  0.273  0.566-  12 2.39  15 2.40   8 2.43
  62  0.532  0.266  0.431-  15 2.39  12 2.41   8 2.42
  63  0.533  0.467  0.428-  13 2.38  14 2.38  15 2.38
  64  0.534  0.661  0.566-   1 2.39  13 2.40  11 2.43
  65  0.532  0.665  0.431-  13 2.39   1 2.41  11 2.42
  66  0.534  0.866  0.568-   3 2.41  11 2.41  10 2.41
  67  0.335  0.468  0.431-  13 2.39   7 2.41   5 2.42
  68  0.334  0.666  0.569-  11 2.41   5 2.41   4 2.41
  69  0.333  0.667  0.433-  11 2.40   5 2.40   4 2.41
  70  0.334  0.867  0.569-  10 2.41   4 2.41   2 2.41
  71  0.333  0.867  0.434-  10 2.41   2 2.41   4 2.41
  72  0.534  0.068  0.568-   9 2.41   8 2.41  10 2.41
  73  0.533  0.066  0.433-   9 2.40  10 2.41   8 2.41
  74  0.934  0.866  0.433-  23 2.40  25 2.41  19 2.41
 
  LATTYP: Found a hexagonal cell.
 ALAT       =    15.8227970706
 C/A-ratio  =     1.4623157837
  
  Lattice vectors:
  
 A1 = (   7.9113985353, -13.7029442220,   0.0000000000)
 A2 = (   7.9113985353,  13.7029442220,   0.0000000000)
 A3 = (   0.0000000000,   0.0000000000,  23.1379258980)


Analysis of symmetry for initial positions (statically):
=====================================================================
 Subroutine PRICEL returns:
 Original cell was already a primitive cell.
 

 Routine SETGRP: Setting up the symmetry group for a 
 hexagonal supercell.


 Subroutine GETGRP returns: Found  6 space group operations
 (whereof  2 operations were pure point group operations)
 out of a pool of 24 trial point group operations.


The static configuration has the point symmetry C_1h.
 The point group associated with its full space group is C_3v.


Analysis of symmetry for dynamics (positions and initial velocities):
=====================================================================
 Subroutine PRICEL returns:
 Original cell was already a primitive cell.
 

 Routine SETGRP: Setting up the symmetry group for a 
 hexagonal supercell.


 Subroutine GETGRP returns: Found  6 space group operations
 (whereof  2 operations were pure point group operations)
 out of a pool of 24 trial point group operations.


The dynamic configuration has the point symmetry C_1h.
 The point group associated with its full space group is C_3v.


Analysis of structural, dynamic, and magnetic symmetry:
=====================================================================
 Subroutine PRICEL returns:
 Original cell was already a primitive cell.
 

 Routine SETGRP: Setting up the symmetry group for a 
 hexagonal supercell.


 Subroutine GETGRP returns: Found  6 space group operations
 (whereof  2 operations were pure point group operations)
 out of a pool of 24 trial point group operations.


The overall configuration has the point symmetry C_1h.
 The point group associated with its full space group is C_3v.


 Subroutine INISYM returns: Found  6 space group operations
 (whereof  2 operations are pure point group operations),
 and found     1 'primitive' translations


----------------------------------------------------------------------------------------

                                     Primitive cell                                     

  volume of cell :    5016.7398

  direct lattice vectors                    reciprocal lattice vectors
     7.911398535-13.702944222  0.000000000     0.063199951 -0.036488509  0.000000000
     7.911398535 13.702944222  0.000000000     0.063199951  0.036488509  0.000000000
     0.000000000  0.000000000 23.137925898     0.000000000  0.000000000  0.043219086

  length of vectors
    15.822797071 15.822797071 23.137925898     0.072977017  0.072977017  0.043219086

  position of ions in fractional coordinates (direct lattice)
     0.665395419  0.730790837  0.498684328
     0.266766242  0.933532485  0.501282788
     0.666340373  0.932722690  0.500361300
     0.266766242  0.733233758  0.501282788
     0.267796652  0.533358277  0.500338916
     0.866666667  0.133333333  0.500298127
     0.269209163  0.334604581  0.498684328
     0.466641723  0.134438376  0.500338916
     0.666340373  0.133617684  0.500361300
     0.466754948  0.933377474  0.501043633
     0.466641723  0.732203348  0.500338916
     0.665395419  0.334604581  0.498684328
     0.468848764  0.531151236  0.496847736
     0.662302472  0.531151236  0.496847736
     0.468848764  0.337697528  0.496847736
     0.866382316  0.333659627  0.500361300
     0.267796652  0.134438376  0.500338916
     0.066467515  0.733233758  0.501282788
     0.865561624  0.732203348  0.500338916
     0.066622526  0.533245052  0.501043633
     0.865561624  0.533358277  0.500338916
     0.067277310  0.333659627  0.500361300
     0.866382316  0.932722690  0.500361300
     0.067277310  0.133617684  0.500361300
     0.066622526  0.933377474  0.501043633
     0.732012484  0.267987516  0.567356592
     0.933883717  0.666941858  0.433095054
     0.733293522  0.266706478  0.432284800
     0.933433648  0.266867297  0.567948124
     0.933512044  0.066487956  0.432711134
     0.931991358  0.665995679  0.568537271
     0.732975912  0.066487956  0.432711134
     0.733132703  0.066566352  0.567948124
     0.932067595  0.865588947  0.568370311
     0.933433648  0.066566352  0.567948124
     0.732012484  0.864024967  0.567356592
     0.733293522  0.866587044  0.432284800
     0.932067595  0.466478649  0.568370311
     0.733648672  0.665317701  0.430833594
     0.727477439  0.661034777  0.566417638
     0.933577291  0.467223572  0.432957933
     0.933512044  0.267024088  0.432711134
     0.733648672  0.468330971  0.430833594
     0.727477439  0.466442662  0.566417638
     0.532776428  0.866353719  0.432957933
     0.133439119  0.666878237  0.433552460
     0.133149120  0.866850880  0.569018344
     0.133439119  0.866560881  0.433552460
     0.333058142  0.066116283  0.433095054
     0.338965223  0.272522561  0.566417638
     0.334004321  0.068008642  0.568537271
     0.133149120  0.666298239  0.569018344
     0.134411053  0.067932405  0.568370311
     0.133646281  0.066422709  0.432957933
     0.135975033  0.267987516  0.567356592
     0.133412956  0.266706478  0.432284800
     0.134411053  0.466478649  0.568370311
     0.133646281  0.467223572  0.432957933
     0.334682299  0.266351328  0.430833594
     0.338965223  0.466442662  0.566417638
     0.533557338  0.272522561  0.566417638
     0.531669029  0.266351328  0.430833594
     0.533333333  0.466666667  0.428161322
     0.533557338  0.661034777  0.566417638
     0.531669029  0.665317701  0.430833594
     0.533521351  0.865588947  0.568370311
     0.334682299  0.468330971  0.430833594
     0.334004321  0.665995679  0.568537271
     0.333058142  0.666941858  0.433095054
     0.333701761  0.866850880  0.569018344
     0.333121763  0.866560881  0.433552460
     0.533521351  0.067932405  0.568370311
     0.532776428  0.066422709  0.432957933
     0.933577291  0.866353719  0.432957933

  ion indices of the primitive-cell ions
   primitive index   ion index
                 1           1
                 2           2
                 3           3
                 4           4
                 5           5
                 6           6
                 7           7
                 8           8
                 9           9
                10          10
                11          11
                12          12
                13          13
                14          14
                15          15
                16          16
                17          17
                18          18
                19          19
                20          20
                21          21
                22          22
                23          23
                24          24
                25          25
                26          26
                27          27
                28          28
                29          29
                30          30
                31          31
                32          32
                33          33
                34          34
                35          35
                36          36
                37          37
                38          38
                39          39
                40          40
                41          41
                42          42
                43          43
                44          44
                45          45
                46          46
                47          47
                48          48
                49          49
                50          50
                51          51
                52          52
                53          53
                54          54
                55          55
                56          56
                57          57
                58          58
                59          59
                60          60
                61          61
                62          62
                63          63
                64          64
                65          65
                66          66
                67          67
                68          68
                69          69
                70          70
                71          71
                72          72
                73          73
                74          74

----------------------------------------------------------------------------------------

 
 
 KPOINTS: K-Points                                

Automatic generation of k-mesh.
 Grid dimensions read from file:
 generate k-points for:    9    9    1

 Generating k-lattice:

  Cartesian coordinates                     Fractional coordinates (reciprocal lattice)
     0.007022217 -0.004054279  0.000000000     0.111111111 -0.000000000  0.000000000
     0.007022217  0.004054279  0.000000000    -0.000000000  0.111111111  0.000000000
     0.000000000  0.000000000  0.043219086     0.000000000  0.000000000  1.000000000

  Length of vectors
     0.008108557  0.008108557  0.043219086

  Shift w.r.t. Gamma in fractional coordinates (k-lattice)
     0.000000000  0.000000000  0.000000000

 TETIRR: Found     43 inequivalent tetrahedra from      486
 
 Subroutine IBZKPT returns following result:
 ===========================================
 
 Found     12 irreducible k-points:
 
 Following reciprocal coordinates:
            Coordinates               Weight
  0.000000  0.000000  0.000000      1.000000
  0.111111 -0.000000  0.000000      6.000000
  0.222222  0.000000  0.000000      6.000000
  0.333333  0.000000  0.000000      6.000000
  0.444444  0.000000  0.000000      6.000000
  0.111111  0.111111  0.000000      6.000000
  0.222222  0.111111  0.000000     12.000000
  0.333333  0.111111  0.000000     12.000000
  0.444444  0.111111  0.000000      6.000000
  0.222222  0.222222  0.000000      6.000000
  0.333333  0.222222  0.000000     12.000000
  0.333333  0.333333  0.000000      2.000000
 
 Following cartesian coordinates:
            Coordinates               Weight
  0.000000  0.000000  0.000000      1.000000
  0.007022 -0.004054  0.000000      6.000000
  0.014044 -0.008109  0.000000      6.000000
  0.021067 -0.012163  0.000000      6.000000
  0.028089 -0.016217  0.000000      6.000000
  0.014044 -0.000000  0.000000      6.000000
  0.021067 -0.004054  0.000000     12.000000
  0.028089 -0.008109  0.000000     12.000000
  0.035111 -0.012163  0.000000      6.000000
  0.028089 -0.000000  0.000000      6.000000
  0.035111 -0.004054  0.000000     12.000000
  0.042133 -0.000000  0.000000      2.000000
 


--------------------------------------------------------------------------------------------------------




 Dimension of arrays:
   k-points           NKPTS =     12   k-points in BZ     NKDIM =     12   number of bands    NBANDS=    424
   number of dos      NEDOS =   3000   number of ions     NIONS =     74
   non local maximal  LDIM  =      6   non local SUM 2l+1 LMDIM =     18
   total plane-waves  NPLWV = ******
   max r-space proj   IRMAX =   3477   max aug-charges    IRDMAX=  11445
   dimension x,y,z NGX =    96 NGY =   96 NGZ =  140
   dimension x,y,z NGXF=   192 NGYF=  192 NGZF=  280
   support grid    NGXF=   192 NGYF=  192 NGZF=  280
   ions per type =              25  49
   NGX,Y,Z   is equivalent  to a cutoff of  10.09, 10.09, 10.06 a.u.
   NGXF,Y,Z  is equivalent  to a cutoff of  20.17, 20.17, 20.12 a.u.

 SYSTEM =  unknown system                          
 POSCAR =  Mo S                                    

 Startparameter for this run:
   NWRITE =      2    write-flag & timer
   PREC   = normal    normal or accurate (medium, high low for compatibility)
   ISTART =      0    job   : 0-new  1-cont  2-samecut
   ICHARG =     11    charge: 1-file 2-atom 10-const
   ISPIN  =      2    spin polarized calculation?
   LNONCOLLINEAR =      F non collinear calculations
   LSORBIT =      F    spin-orbit coupling
   INIWAV =      1    electr: 0-lowe 1-rand  2-diag
   LASPH  =      T    aspherical Exc in radial PAW
 Electronic Relaxation 1
   ENCUT  =  600.0 eV  44.10 Ry    6.64 a.u.  31.60 31.60 46.21*2*pi/ulx,y,z
   ENINI  =  600.0     initial cutoff
   ENAUG  =  446.0 eV  augmentation charge cutoff
   NELM   =   2000;   NELMIN=  2; NELMDL=  0     # of ELM steps 
   EDIFF  = 0.1E-05   stopping-criterion for ELM
   LREAL  =      T    real-space projection
   NLSPLINE    = F    spline interpolate recip. space projectors
   LCOMPAT=      F    compatible to vasp.4.4
   GGA_COMPAT  = T    GGA compatible to vasp.4.4-vasp.4.6
   LMAXPAW     = -100 max onsite density
   LMAXMIX     =    2 max onsite mixed and CHGCAR
   VOSKOWN=      0    Vosko Wilk Nusair interpolation
   ROPT   =   -0.00050  -0.00050
 Ionic relaxation
   EDIFFG = 0.1E-04   stopping-criterion for IOM
   NSW    =      0    number of steps for IOM
   NBLOCK =      1;   KBLOCK =      1    inner block; outer block 
   IBRION =     -1    ionic relax: 0-MD 1-quasi-New 2-CG
   NFREE  =      0    steps in history (QN), initial steepest desc. (CG)
   ISIF   =      2    stress and relaxation
   IWAVPR =     10    prediction:  0-non 1-charg 2-wave 3-comb
   ISYM   =      2    0-nonsym 1-usesym 2-fastsym
   LCORR  =      T    Harris-Foulkes like correction to forces

   POTIM  = 0.5000    time-step for ionic-motion
   TEIN   =    0.0    initial temperature
   TEBEG  =    0.0;   TEEND  =   0.0 temperature during run
   SMASS  =  -3.00    Nose mass-parameter (am)
   estimated Nose-frequenzy (Omega)   =  0.10E-29 period in steps = 0.13E+47 mass=  -0.572E-26a.u.
   SCALEE = 1.0000    scale energy and forces
   NPACO  =    256;   APACO  = 10.0  distance and # of slots for P.C.
   PSTRESS=    0.0 pullay stress

  Mass of Ions in am
   POMASS =  95.94 32.07
  Ionic Valenz
   ZVAL   =  14.00  6.00
  Atomic Wigner-Seitz radii
   RWIGS  =  -1.00 -1.00
  virtual crystal weights 
   VCA    =   1.00  1.00
   NELECT =     644.0000    total number of electrons
   NUPDOWN=      -1.0000    fix difference up-down

 DOS related values:
   EMIN   =  -8.00;   EMAX   =  5.00  energy-range for DOS
   EFERMI =   0.00
   ISMEAR =    -5;   SIGMA  =   0.20  broadening in eV -4-tet -1-fermi 0-gaus

 Electronic relaxation 2 (details)
   IALGO  =     38    algorithm
   LDIAG  =      T    sub-space diagonalisation (order eigenvalues)
   LSUBROT=      F    optimize rotation matrix (better conditioning)
   TURBO    =      0    0=normal 1=particle mesh
   IRESTART =      0    0=no restart 2=restart with 2 vectors
   NREBOOT  =      0    no. of reboots
   NMIN     =      0    reboot dimension
   EREF     =   0.00    reference energy to select bands
   IMIX   =      4    mixing-type and parameters
     AMIX     =   0.40;   BMIX     =  1.00
     AMIX_MAG =   1.60;   BMIX_MAG =  1.00
     AMIN     =   0.10
     WC   =   100.;   INIMIX=   1;  MIXPRE=   1;  MAXMIX= -45

 Intra band minimization:
   WEIMIN = 0.0000     energy-eigenvalue tresh-hold
   EBREAK =  0.59E-09  absolut break condition
   DEPER  =   0.30     relativ break condition  

   TIME   =   0.40     timestep for ELM

  volume/ion in A,a.u.               =      67.79       457.50
  Fermi-wavevector in a.u.,A,eV,Ry     =   0.825841  1.560613  9.279347  0.682013
  Thomas-Fermi vector in A             =   1.937769
 
 Write flags
   LWAVE        =      F    write WAVECAR
   LDOWNSAMPLE  =      F    k-point downsampling of WAVECAR
   LCHARG       =      T    write CHGCAR
   LVTOT        =      F    write LOCPOT, total local potential
   LVHAR        =      F    write LOCPOT, Hartree potential only
   LELF         =      F    write electronic localiz. function (ELF)
   LORBIT       =     11    0 simple, 1 ext, 2 COOP (PROOUT), +10 PAW based schemes


 Dipole corrections
   LMONO  =      F    monopole corrections only (constant potential shift)
   LDIPOL =      T    correct potential (dipole corrections)
   IDIPOL =      3    1-x, 2-y, 3-z, 4-all directions 
   EPSILON=  1.0000000 bulk dielectric constant

 Exchange correlation treatment:
   GGA     =    MK    GGA type
   LEXCH   =    43    internal setting for exchange type
   LIBXC   =     F    Libxc                    
   VOSKOWN =     0    Vosko Wilk Nusair interpolation
   LHFCALC =     F    Hartree Fock is set to
   LHFONE  =     F    Hartree Fock one center treatment
   AEXX    =    0.0000 exact exchange contribution

 vdW DFT:
   LUSE_VDW   =     T    switch on vdW DFT
   Zab_VDW    =-.8491    correlation parameter
   PARAM1     =0.1234
   PARAM2     =1.0000
   PARAM3     =0.0000
   -- rVV10 --
   BPARAM     = 6.3000
   CPARAM     = 0.0093

 Linear response parameters
   LEPSILON=     F    determine dielectric tensor
   LRPA    =     F    only Hartree local field effects (RPA)
   LNABLA  =     F    use nabla operator in PAW spheres
   LVEL    =     F    velocity operator in full k-point grid
   CSHIFT  =0.1000    complex shift for real part using Kramers Kronig
   OMEGAMAX=  -1.0    maximum frequency
   DEG_THRESHOLD= 0.2000000E-02 threshold for treating states as degnerate
   RTIME   =   -0.100 relaxation time in fs
  (WPLASMAI=    0.000 imaginary part of plasma frequency in eV, 0.658/RTIME)
   DFIELD  = 0.0000000 0.0000000 0.0000000 field for delta impulse in time
 
  Optional k-point grid parameters
   LKPOINTS_OPT  =     F    use optional k-point grid
   KPOINTS_OPT_MODE=     1    mode for optional k-point grid
 
 Orbital magnetization related:
   ORBITALMAG=     F  switch on orbital magnetization
   LCHIMAG   =     F  perturbation theory with respect to B field
   DQ        =  0.001000  dq finite difference perturbation B field
   LLRAUG    =     F  two centre corrections for induced B field



--------------------------------------------------------------------------------------------------------


 Static calculation
 charge density and potential remain constant during run
 spin polarized calculation
 Variant of blocked Davidson
 Davidson routine will perform the subspace rotation
 perform sub-space diagonalisation
    after iterative eigenvector-optimisation
 no mixing
 using additional bands          102
 real space projection scheme for non local part
 use partial core corrections
 calculate Harris-corrections to forces 
   (improved forces if not selfconsistent)
 use gradient corrections 
 WARNING: stress and forces are not correct
  (second derivative of E(xc) not defined)
 use of overlap-Matrix (Vanderbilt PP)
 Fermi weights with tetrahedron method with Bloechl corrections


--------------------------------------------------------------------------------------------------------


  energy-cutoff  :      600.00
  volume of cell :     5016.74
      direct lattice vectors                 reciprocal lattice vectors
     7.911398535-13.702944222  0.000000000     0.063199951 -0.036488509  0.000000000
     7.911398535 13.702944222  0.000000000     0.063199951  0.036488509  0.000000000
     0.000000000  0.000000000 23.137925898     0.000000000  0.000000000  0.043219086

  length of vectors
    15.822797071 15.822797071 23.137925898     0.072977017  0.072977017  0.043219086


 
 k-points in units of 2pi/SCALE and weight: K-Points                                
   0.00000000  0.00000000  0.00000000       0.012
   0.00702222 -0.00405428  0.00000000       0.074
   0.01404443 -0.00810856  0.00000000       0.074
   0.02106665 -0.01216284  0.00000000       0.074
   0.02808887 -0.01621711  0.00000000       0.074
   0.01404443 -0.00000000  0.00000000       0.074
   0.02106665 -0.00405428  0.00000000       0.148
   0.02808887 -0.00810856  0.00000000       0.148
   0.03511108 -0.01216284  0.00000000       0.074
   0.02808887 -0.00000000  0.00000000       0.074
   0.03511108 -0.00405428  0.00000000       0.148
   0.04213330 -0.00000000  0.00000000       0.025
 
 k-points in reciprocal lattice and weights: K-Points                                
   0.00000000  0.00000000  0.00000000       0.012
   0.11111111 -0.00000000  0.00000000       0.074
   0.22222222  0.00000000  0.00000000       0.074
   0.33333333  0.00000000  0.00000000       0.074
   0.44444444  0.00000000  0.00000000       0.074
   0.11111111  0.11111111  0.00000000       0.074
   0.22222222  0.11111111  0.00000000       0.148
   0.33333333  0.11111111  0.00000000       0.148
   0.44444444  0.11111111  0.00000000       0.074
   0.22222222  0.22222222  0.00000000       0.074
   0.33333333  0.22222222  0.00000000       0.148
   0.33333333  0.33333333  0.00000000       0.025
 
 position of ions in fractional coordinates (direct lattice) 
   0.66539542  0.73079084  0.49868433
   0.26676624  0.93353248  0.50128279
   0.66634037  0.93272269  0.50036130
   0.26676624  0.73323376  0.50128279
   0.26779665  0.53335828  0.50033892
   0.86666667  0.13333333  0.50029813
   0.26920916  0.33460458  0.49868433
   0.46664172  0.13443838  0.50033892
   0.66634037  0.13361768  0.50036130
   0.46675495  0.93337747  0.50104363
   0.46664172  0.73220335  0.50033892
   0.66539542  0.33460458  0.49868433
   0.46884876  0.53115124  0.49684774
   0.66230247  0.53115124  0.49684774
   0.46884876  0.33769753  0.49684774
   0.86638232  0.33365963  0.50036130
   0.26779665  0.13443838  0.50033892
   0.06646752  0.73323376  0.50128279
   0.86556162  0.73220335  0.50033892
   0.06662253  0.53324505  0.50104363
   0.86556162  0.53335828  0.50033892
   0.06727731  0.33365963  0.50036130
   0.86638232  0.93272269  0.50036130
   0.06727731  0.13361768  0.50036130
   0.06662253  0.93337747  0.50104363
   0.73201248  0.26798752  0.56735659
   0.93388372  0.66694186  0.43309505
   0.73329352  0.26670648  0.43228480
   0.93343365  0.26686730  0.56794812
   0.93351204  0.06648796  0.43271113
   0.93199136  0.66599568  0.56853727
   0.73297591  0.06648796  0.43271113
   0.73313270  0.06656635  0.56794812
   0.93206760  0.86558895  0.56837031
   0.93343365  0.06656635  0.56794812
   0.73201248  0.86402497  0.56735659
   0.73329352  0.86658704  0.43228480
   0.93206760  0.46647865  0.56837031
   0.73364867  0.66531770  0.43083359
   0.72747744  0.66103478  0.56641764
   0.93357729  0.46722357  0.43295793
   0.93351204  0.26702409  0.43271113
   0.73364867  0.46833097  0.43083359
   0.72747744  0.46644266  0.56641764
   0.53277643  0.86635372  0.43295793
   0.13343912  0.66687824  0.43355246
   0.13314912  0.86685088  0.56901834
   0.13343912  0.86656088  0.43355246
   0.33305814  0.06611628  0.43309505
   0.33896522  0.27252256  0.56641764
   0.33400432  0.06800864  0.56853727
   0.13314912  0.66629824  0.56901834
   0.13441105  0.06793240  0.56837031
   0.13364628  0.06642271  0.43295793
   0.13597503  0.26798752  0.56735659
   0.13341296  0.26670648  0.43228480
   0.13441105  0.46647865  0.56837031
   0.13364628  0.46722357  0.43295793
   0.33468230  0.26635133  0.43083359
   0.33896522  0.46644266  0.56641764
   0.53355734  0.27252256  0.56641764
   0.53166903  0.26635133  0.43083359
   0.53333333  0.46666667  0.42816132
   0.53355734  0.66103478  0.56641764
   0.53166903  0.66531770  0.43083359
   0.53352135  0.86558895  0.56837031
   0.33468230  0.46833097  0.43083359
   0.33400432  0.66599568  0.56853727
   0.33305814  0.66694186  0.43309505
   0.33370176  0.86685088  0.56901834
   0.33312176  0.86656088  0.43355246
   0.53352135  0.06793240  0.56837031
   0.53277643  0.06642271  0.43295793
   0.93357729  0.86635372  0.43295793
 
 position of ions in cartesian coordinates  (Angst):
  11.04578590  0.89610977 11.53852103
   9.49604159  9.13666063 11.59864399
  12.65082517  3.65022202 11.57732269
   7.91139854  6.39197834 11.59864399
   6.33825593  3.63897613 11.57680476
   7.91139854-10.04882576 11.57586098
   4.77701117  0.89610977 11.53852103
   4.75538421 -4.55216394 11.57680476
   6.32878700 -7.29986930 11.57732269
  11.07700559  6.39410245 11.59311046
   9.48454114  3.63897613 11.57680476
   7.91139854 -4.53280839 11.53852103
   7.91139854  0.85372729 11.49602609
   9.44188791 -1.79715807 11.49602609
   6.38090916 -1.79715807 11.49602609
   9.49401007 -7.29986930 11.57732269
   3.18224161 -1.82740103 11.57680476
   6.32675548  9.13666063 11.59864399
  12.64055546 -1.82740103 11.57680476
   4.74579148  6.39410245 11.59311046
  11.06741286 -4.55216394 11.57680476
   3.17197190  3.65022202 11.57732269
  14.23343671  0.90905844 11.57732269
   1.58936036  0.90905844 11.57732269
   7.91139854 11.87709471 11.59311046
   7.91139854 -6.35850825 13.12745478
  12.66476911 -3.65788939 10.02092128
   7.91139854 -6.39361624 10.00217367
   9.49605914 -9.13392154 13.14114160
   7.91139854-11.88078271 10.01203817
  12.64231231 -3.64492395 13.15477324
   6.32487728 -9.13284729 10.01203817
   6.32673793 -9.13392154 13.14114160
  14.22197733 -0.91095322 13.15091014
   7.91139854-11.87863422 13.14114160
  12.62688835  1.80895970 13.12745478
  12.65729277  1.82651370 10.00217367
  11.06445671 -6.37993937 13.15091014
  11.06778051 -0.93633548  9.96859577
  10.98507351 -0.91046009 13.10572934
  11.08229389 -6.39041900 10.01774857
   9.49791979 -9.13284729 10.01203817
   9.50933998 -3.63563366  9.96859577
   9.44557773 -3.57694499 13.10572934
  11.06907620  4.57099101 10.01774857
   6.33162956  7.30968649 10.03150470
   7.91139854 10.05387430 13.16590427
   7.91139854 10.04592662 10.03150470
   3.15802796 -3.65788939 10.02092128
   4.83772356 -0.91046009 13.10572934
   3.18048477 -3.64492395 13.15477324
   6.32474666  7.30571265 13.16590427
   1.60081974 -0.91095322 13.15091014
   1.58282551 -0.92116085 10.01774857
   3.19590872  1.80895970 13.12745478
   3.16550430  1.82651370 10.00217367
   4.75387791  4.55030374 13.15091014
   4.75372087  4.57099101 10.01774857
   4.75501656 -0.93633548  9.96859577
   6.37190276  1.74681623 13.10572934
   6.37721934 -3.57694499 13.10572934
   6.31345709 -3.63563366  9.96859577
   7.91139854 -0.91352961  9.90676495
   9.45089431  1.74681623 13.10572934
   9.46983906  1.83138029  9.96859577
  11.06891916  4.55030374 13.15091014
   6.35295801  1.83138029  9.96859577
   7.91139854  4.54925906 13.15477324
   7.91139854  4.57518994 10.02092128
   9.49805041  7.30571265 13.16590427
   9.49116751  7.30968649 10.03150470
   4.75834036 -6.37993937 13.15091014
   4.74050318 -6.39041900 10.01774857
  14.23997156 -0.92116085 10.01774857
 


--------------------------------------------------------------------------------------------------------


 k-point   1 :   0.0000 0.0000 0.0000  plane waves:  167445
 k-point   2 :   0.1111-0.0000 0.0000  plane waves:  167431
 k-point   3 :   0.2222 0.0000 0.0000  plane waves:  167395
 k-point   4 :   0.3333 0.0000 0.0000  plane waves:  167407
 k-point   5 :   0.4444 0.0000 0.0000  plane waves:  167424
 k-point   6 :   0.1111 0.1111 0.0000  plane waves:  167395
 k-point   7 :   0.2222 0.1111 0.0000  plane waves:  167432
 k-point   8 :   0.3333 0.1111 0.0000  plane waves:  167395
 k-point   9 :   0.4444 0.1111 0.0000  plane waves:  167436
 k-point  10 :   0.2222 0.2222 0.0000  plane waves:  167478
 k-point  11 :   0.3333 0.2222 0.0000  plane waves:  167437
 k-point  12 :   0.3333 0.3333 0.0000  plane waves:  167430

 maximum and minimum number of plane-waves per node :     10516    10428

 maximum number of plane-waves:    167478
 maximum index in each direction: 
   IXMAX=   31   IYMAX=   31   IZMAX=   46
   IXMIN=  -32   IYMIN=  -31   IZMIN=  -46


 real space projection operators:
  total allocation   :      15526.88 KBytes
  max/ min on nodes  :        975.20        963.56


 parallel 3D FFT for wavefunctions:
    minimum data exchange during FFTs selected (reduces bandwidth)
 parallel 3D FFT for charge:
    minimum data exchange during FFTs selected (reduces bandwidth)


 total amount of memory used by VASP MPI-rank0   491642. kBytes
=======================================================================

   base      :      30000. kBytes
   nonlr-proj:       5542. kBytes
   fftplans  :       7969. kBytes
   grid      :      19445. kBytes
   one-center:        155. kBytes
   wavefun   :     428531. kBytes
 
     INWAV:  cpu time      0.0006: real time      0.0007
 initial charge density was supplied:
 number of electron     644.0000046 magnetization      -0.0000417
 keeping initial charge density in first step


--------------------------------------------------------------------------------------------------------


 Maximum index for non-local projection operator          245
 Maximum index for augmentation-charges          541 (set IRDMAX)


--------------------------------------------------------------------------------------------------------


 First call to EWALD:  gamma=   0.104
 Maximum number of real-space cells 3x 3x 2
 Maximum number of reciprocal cells 3x 3x 4

    FEWALD:  cpu time      0.1363: real time      0.1364


--------------------------------------- Iteration      1(   1)  ---------------------------------------


vdW kernel read from vdw_kernel.bindat
  0.0000  0.2424  0.5071  0.7962  1.1119  1.4567  1.8333  2.2446  2.6937  3.1842
  3.7199  4.3049  4.9438  5.6415  6.4036  7.2358  8.1446  9.1372 10.2212 11.4050
 12.6979 14.1099 15.6519 17.3360 19.1751 21.1837 23.3773 25.7729 28.3892 31.2465
 34.3669 37.7748 41.4965 45.5611 50.0000
 
    POTLOK:  cpu time      7.6735: real time      7.6914
    SETDIJ:  cpu time      2.9456: real time      2.9474
     EDDAV:  cpu time     45.5802: real time     45.6810
 BZINTS: Fermi energy:   10.011550;  644.000000 electrons
         Band energy:-0.605963E+04;  BLOECHL correction:   -0.008010
       DOS:  cpu time      1.5448: real time      1.5460
    --------------------------------------------
      LOOP:  cpu time     57.7441: real time     57.8659

 eigenvalue-minimisations  : 24576
 total energy-change (2. order) : 0.5757449E+04  (-0.3273884E+05)
 number of electron     644.0000046 magnetization      -0.0000417
 augmentation part      644.0000046 magnetization      -0.0000417

 DIPCOR: dipole corrections for dipol
 direction  3 min pos     1,
 dipolmoment           0.000000      0.000000      0.003822 electrons x Angstroem
 Tr[quadrupol]    -26899.731192

 energy correction for charged system         0.000000 eV
 dipol+quadrupol energy correction           -0.000000 eV
 added-field ion interaction          0.001370 eV  (added to PSCEN)


 Free energy of the ion-electron system (eV)
  ---------------------------------------------------
  alpha Z        PSCENC =       580.69114450
  Ewald energy   TEWEN  =    181411.23174101
  -Hartree energ DENC   =   -233255.53341451
  -exchange      EXHF   =         0.00000000
  -V(xc)+E(xc)   XCENC  =      2258.12076896
  PAW double counting   =     72556.24217133   -72001.47872397
  entropy T*S    EENTRO =         0.00000000
  eigenvalues    EBANDS =     -6059.63270026
  atomic energy  EATOM  =     60267.80825831
  Solvation  Ediel_sol  =         0.00000000
  ---------------------------------------------------
  free energy    TOTEN  =      5757.44924537 eV

  energy without entropy =     5757.44924537  energy(sigma->0) =     5757.44924537


--------------------------------------------------------------------------------------------------------




--------------------------------------- Iteration      1(   2)  ---------------------------------------


     EDDAV:  cpu time     50.9400: real time     50.9750
 BZINTS: Fermi energy:   -0.484431;  644.000000 electrons
         Band energy:-0.115601E+05;  BLOECHL correction:   -0.000000
       DOS:  cpu time      1.3931: real time      1.3936
    --------------------------------------------
      LOOP:  cpu time     52.3331: real time     52.3686

 eigenvalue-minimisations  : 28552
 total energy-change (2. order) :-0.5500517E+04  (-0.5295912E+04)
 number of electron     644.0000046 magnetization      -0.0000417
 augmentation part      644.0000046 magnetization      -0.0000417

 DIPCOR: dipole corrections for dipol
 direction  3 min pos     1,
 dipolmoment           0.000000      0.000000      0.003822 electrons x Angstroem
 Tr[quadrupol]    -26899.731192

 energy correction for charged system         0.000000 eV
 dipol+quadrupol energy correction           -0.000000 eV
 added-field ion interaction          0.001370 eV  (added to PSCEN)


 Free energy of the ion-electron system (eV)
  ---------------------------------------------------
  alpha Z        PSCENC =       580.69114450
  Ewald energy   TEWEN  =    181411.23174101
  -Hartree energ DENC   =   -233255.53341451
  -exchange      EXHF   =         0.00000000
  -V(xc)+E(xc)   XCENC  =      2258.12076896
  PAW double counting   =     72556.24217133   -72001.47872397
  entropy T*S    EENTRO =         0.00000000
  eigenvalues    EBANDS =    -11560.14974184
  atomic energy  EATOM  =     60267.80825831
  Solvation  Ediel_sol  =         0.00000000
  ---------------------------------------------------
  free energy    TOTEN  =       256.93220379 eV

  energy without entropy =      256.93220379  energy(sigma->0) =      256.93220379


--------------------------------------------------------------------------------------------------------




--------------------------------------- Iteration      1(   3)  ---------------------------------------


     EDDAV:  cpu time     44.6597: real time     44.6909
 BZINTS: Fermi energy:   -2.532471;  644.000000 electrons
         Band energy:-0.121917E+05;  BLOECHL correction:   -0.000000
       DOS:  cpu time      1.3860: real time      1.3873
    --------------------------------------------
      LOOP:  cpu time     46.0457: real time     46.0782

 eigenvalue-minimisations  : 24424
 total energy-change (2. order) :-0.6315922E+03  (-0.6224797E+03)
 number of electron     644.0000046 magnetization      -0.0000417
 augmentation part      644.0000046 magnetization      -0.0000417

 DIPCOR: dipole corrections for dipol
 direction  3 min pos     1,
 dipolmoment           0.000000      0.000000      0.003822 electrons x Angstroem
 Tr[quadrupol]    -26899.731192

 energy correction for charged system         0.000000 eV
 dipol+quadrupol energy correction           -0.000000 eV
 added-field ion interaction          0.001370 eV  (added to PSCEN)


 Free energy of the ion-electron system (eV)
  ---------------------------------------------------
  alpha Z        PSCENC =       580.69114450
  Ewald energy   TEWEN  =    181411.23174101
  -Hartree energ DENC   =   -233255.53341451
  -exchange      EXHF   =         0.00000000
  -V(xc)+E(xc)   XCENC  =      2258.12076896
  PAW double counting   =     72556.24217133   -72001.47872397
  entropy T*S    EENTRO =         0.00000000
  eigenvalues    EBANDS =    -12191.74191635
  atomic energy  EATOM  =     60267.80825831
  Solvation  Ediel_sol  =         0.00000000
  ---------------------------------------------------
  free energy    TOTEN  =      -374.65997072 eV

  energy without entropy =     -374.65997072  energy(sigma->0) =     -374.65997072


--------------------------------------------------------------------------------------------------------




--------------------------------------- Iteration      1(   4)  ---------------------------------------


     EDDAV:  cpu time     44.6923: real time     44.7225
 BZINTS: Fermi energy:   -2.651514;  644.000000 electrons
         Band energy:-0.122122E+05;  BLOECHL correction:   -0.000000
       DOS:  cpu time      1.4181: real time      1.4186
    --------------------------------------------
      LOOP:  cpu time     46.1104: real time     46.1411

 eigenvalue-minimisations  : 24504
 total energy-change (2. order) :-0.2044273E+02  (-0.2008934E+02)
 number of electron     644.0000046 magnetization      -0.0000417
 augmentation part      644.0000046 magnetization      -0.0000417

 DIPCOR: dipole corrections for dipol
 direction  3 min pos     1,
 dipolmoment           0.000000      0.000000      0.003822 electrons x Angstroem
 Tr[quadrupol]    -26899.731192

 energy correction for charged system         0.000000 eV
 dipol+quadrupol energy correction           -0.000000 eV
 added-field ion interaction          0.001370 eV  (added to PSCEN)


 Free energy of the ion-electron system (eV)
  ---------------------------------------------------
  alpha Z        PSCENC =       580.69114450
  Ewald energy   TEWEN  =    181411.23174101
  -Hartree energ DENC   =   -233255.53341451
  -exchange      EXHF   =         0.00000000
  -V(xc)+E(xc)   XCENC  =      2258.12076896
  PAW double counting   =     72556.24217133   -72001.47872397
  entropy T*S    EENTRO =         0.00000000
  eigenvalues    EBANDS =    -12212.18465068
  atomic energy  EATOM  =     60267.80825831
  Solvation  Ediel_sol  =         0.00000000
  ---------------------------------------------------
  free energy    TOTEN  =      -395.10270505 eV

  energy without entropy =     -395.10270505  energy(sigma->0) =     -395.10270505


--------------------------------------------------------------------------------------------------------




--------------------------------------- Iteration      1(   5)  ---------------------------------------


     EDDAV:  cpu time     49.5330: real time     49.5670
 BZINTS: Fermi energy:   -2.654682;  644.000000 electrons
         Band energy:-0.122129E+05;  BLOECHL correction:   -0.000000
       DOS:  cpu time      1.4242: real time      1.4247
    --------------------------------------------
      LOOP:  cpu time     50.9572: real time     50.9917

 eigenvalue-minimisations  : 27648
 total energy-change (2. order) :-0.6986340E+00  (-0.6920447E+00)
 number of electron     644.0000046 magnetization      -0.0000417
 augmentation part      644.0000046 magnetization      -0.0000417

 DIPCOR: dipole corrections for dipol
 direction  3 min pos     1,
 dipolmoment           0.000000      0.000000      0.003822 electrons x Angstroem
 Tr[quadrupol]    -26899.731192

 energy correction for charged system         0.000000 eV
 dipol+quadrupol energy correction           -0.000000 eV
 added-field ion interaction          0.001370 eV  (added to PSCEN)


 Free energy of the ion-electron system (eV)
  ---------------------------------------------------
  alpha Z        PSCENC =       580.69114450
  Ewald energy   TEWEN  =    181411.23174101
  -Hartree energ DENC   =   -233255.53341451
  -exchange      EXHF   =         0.00000000
  -V(xc)+E(xc)   XCENC  =      2258.12076896
  PAW double counting   =     72556.24217133   -72001.47872397
  entropy T*S    EENTRO =         0.00000000
  eigenvalues    EBANDS =    -12212.88328468
  atomic energy  EATOM  =     60267.80825831
  Solvation  Ediel_sol  =         0.00000000
  ---------------------------------------------------
  free energy    TOTEN  =      -395.80133905 eV

  energy without entropy =     -395.80133905  energy(sigma->0) =     -395.80133905


--------------------------------------------------------------------------------------------------------




--------------------------------------- Iteration      1(   6)  ---------------------------------------


     EDDAV:  cpu time     47.8877: real time     47.9217
 BZINTS: Fermi energy:   -2.654805;  644.000000 electrons
         Band energy:-0.122129E+05;  BLOECHL correction:   -0.000000
       DOS:  cpu time      1.4188: real time      1.4200
    --------------------------------------------
      LOOP:  cpu time     49.3065: real time     49.3417

 eigenvalue-minimisations  : 26272
 total energy-change (2. order) :-0.2133996E-01  (-0.2116711E-01)
 number of electron     644.0000046 magnetization      -0.0000417
 augmentation part      644.0000046 magnetization      -0.0000417

 DIPCOR: dipole corrections for dipol
 direction  3 min pos     1,
 dipolmoment           0.000000      0.000000      0.003822 electrons x Angstroem
 Tr[quadrupol]    -26899.731192

 energy correction for charged system         0.000000 eV
 dipol+quadrupol energy correction           -0.000000 eV
 added-field ion interaction          0.001370 eV  (added to PSCEN)


 Free energy of the ion-electron system (eV)
  ---------------------------------------------------
  alpha Z        PSCENC =       580.69114450
  Ewald energy   TEWEN  =    181411.23174101
  -Hartree energ DENC   =   -233255.53341451
  -exchange      EXHF   =         0.00000000
  -V(xc)+E(xc)   XCENC  =      2258.12076896
  PAW double counting   =     72556.24217133   -72001.47872397
  entropy T*S    EENTRO =         0.00000000
  eigenvalues    EBANDS =    -12212.90462465
  atomic energy  EATOM  =     60267.80825831
  Solvation  Ediel_sol  =         0.00000000
  ---------------------------------------------------
  free energy    TOTEN  =      -395.82267902 eV

  energy without entropy =     -395.82267902  energy(sigma->0) =     -395.82267902


--------------------------------------------------------------------------------------------------------




--------------------------------------- Iteration      1(   7)  ---------------------------------------


     EDDAV:  cpu time     50.4095: real time     50.4475
 BZINTS: Fermi energy:   -2.654809;  644.000000 electrons
         Band energy:-0.122129E+05;  BLOECHL correction:   -0.000000
       DOS:  cpu time      1.4119: real time      1.4124
    --------------------------------------------
      LOOP:  cpu time     51.8214: real time     51.8599

 eigenvalue-minimisations  : 28088
 total energy-change (2. order) :-0.1017517E-02  (-0.1012373E-02)
 number of electron     644.0000046 magnetization      -0.0000417
 augmentation part      644.0000046 magnetization      -0.0000417

 DIPCOR: dipole corrections for dipol
 direction  3 min pos     1,
 dipolmoment           0.000000      0.000000      0.003822 electrons x Angstroem
 Tr[quadrupol]    -26899.731192

 energy correction for charged system         0.000000 eV
 dipol+quadrupol energy correction           -0.000000 eV
 added-field ion interaction          0.001370 eV  (added to PSCEN)


 Free energy of the ion-electron system (eV)
  ---------------------------------------------------
  alpha Z        PSCENC =       580.69114450
  Ewald energy   TEWEN  =    181411.23174101
  -Hartree energ DENC   =   -233255.53341451
  -exchange      EXHF   =         0.00000000
  -V(xc)+E(xc)   XCENC  =      2258.12076896
  PAW double counting   =     72556.24217133   -72001.47872397
  entropy T*S    EENTRO =         0.00000000
  eigenvalues    EBANDS =    -12212.90564216
  atomic energy  EATOM  =     60267.80825831
  Solvation  Ediel_sol  =         0.00000000
  ---------------------------------------------------
  free energy    TOTEN  =      -395.82369653 eV

  energy without entropy =     -395.82369653  energy(sigma->0) =     -395.82369653


--------------------------------------------------------------------------------------------------------




--------------------------------------- Iteration      1(   8)  ---------------------------------------


     EDDAV:  cpu time     44.5683: real time     44.5993
 BZINTS: Fermi energy:   -2.654809;  644.000000 electrons
         Band energy:-0.122129E+05;  BLOECHL correction:   -0.000000
       DOS:  cpu time      1.4209: real time      1.4221
    --------------------------------------------
      LOOP:  cpu time     45.9892: real time     46.0214

 eigenvalue-minimisations  : 23904
 total energy-change (2. order) :-0.3493985E-04  (-0.3482014E-04)
 number of electron     644.0000046 magnetization      -0.0000417
 augmentation part      644.0000046 magnetization      -0.0000417

 DIPCOR: dipole corrections for dipol
 direction  3 min pos     1,
 dipolmoment           0.000000      0.000000      0.003822 electrons x Angstroem
 Tr[quadrupol]    -26899.731192

 energy correction for charged system         0.000000 eV
 dipol+quadrupol energy correction           -0.000000 eV
 added-field ion interaction          0.001370 eV  (added to PSCEN)


 Free energy of the ion-electron system (eV)
  ---------------------------------------------------
  alpha Z        PSCENC =       580.69114450
  Ewald energy   TEWEN  =    181411.23174101
  -Hartree energ DENC   =   -233255.53341451
  -exchange      EXHF   =         0.00000000
  -V(xc)+E(xc)   XCENC  =      2258.12076896
  PAW double counting   =     72556.24217133   -72001.47872397
  entropy T*S    EENTRO =         0.00000000
  eigenvalues    EBANDS =    -12212.90567710
  atomic energy  EATOM  =     60267.80825831
  Solvation  Ediel_sol  =         0.00000000
  ---------------------------------------------------
  free energy    TOTEN  =      -395.82373147 eV

  energy without entropy =     -395.82373147  energy(sigma->0) =     -395.82373147


--------------------------------------------------------------------------------------------------------




--------------------------------------- Iteration      1(   9)  ---------------------------------------


     EDDAV:  cpu time     41.2568: real time     41.2835
 BZINTS: Fermi energy:   -2.654809;  644.000000 electrons
         Band energy:-0.122129E+05;  BLOECHL correction:   -0.000000
       DOS:  cpu time      1.4039: real time      1.4043
    --------------------------------------------
      LOOP:  cpu time     42.6607: real time     42.6878

 eigenvalue-minimisations  : 21856
 total energy-change (2. order) :-0.1730776E-05  (-0.1724754E-05)
 number of electron     644.0000046 magnetization      -0.0000417
 augmentation part      644.0000046 magnetization      -0.0000417

 DIPCOR: dipole corrections for dipol
 direction  3 min pos     1,
 dipolmoment           0.000000      0.000000      0.003822 electrons x Angstroem
 Tr[quadrupol]    -26899.731192

 energy correction for charged system         0.000000 eV
 dipol+quadrupol energy correction           -0.000000 eV
 added-field ion interaction          0.001370 eV  (added to PSCEN)


 Free energy of the ion-electron system (eV)
  ---------------------------------------------------
  alpha Z        PSCENC =       580.69114450
  Ewald energy   TEWEN  =    181411.23174101
  -Hartree energ DENC   =   -233255.53341451
  -exchange      EXHF   =         0.00000000
  -V(xc)+E(xc)   XCENC  =      2258.12076896
  PAW double counting   =     72556.24217133   -72001.47872397
  entropy T*S    EENTRO =         0.00000000
  eigenvalues    EBANDS =    -12212.90567884
  atomic energy  EATOM  =     60267.80825831
  Solvation  Ediel_sol  =         0.00000000
  ---------------------------------------------------
  free energy    TOTEN  =      -395.82373321 eV

  energy without entropy =     -395.82373321  energy(sigma->0) =     -395.82373321


--------------------------------------------------------------------------------------------------------




--------------------------------------- Iteration      1(  10)  ---------------------------------------


     EDDAV:  cpu time     33.7739: real time     33.7974
 BZINTS: Fermi energy:   -2.654809;  644.000000 electrons
         Band energy:-0.122129E+05;  BLOECHL correction:   -0.000000
       DOS:  cpu time      1.4201: real time      1.4214
    --------------------------------------------
      LOOP:  cpu time     35.1940: real time     35.2188

 eigenvalue-minimisations  : 16328
 total energy-change (2. order) :-0.6618211E-07  (-0.6611267E-07)
 number of electron     644.0000046 magnetization      -0.0000417
 augmentation part      644.0000046 magnetization      -0.0000417

 DIPCOR: dipole corrections for dipol
 direction  3 min pos     1,
 dipolmoment           0.000000      0.000000      0.003822 electrons x Angstroem
 Tr[quadrupol]    -26899.731192

 energy correction for charged system         0.000000 eV
 dipol+quadrupol energy correction           -0.000000 eV
 added-field ion interaction          0.001370 eV  (added to PSCEN)


 Free energy of the ion-electron system (eV)
  ---------------------------------------------------
  alpha Z        PSCENC =       580.69114450
  Ewald energy   TEWEN  =    181411.23174101
  -Hartree energ DENC   =   -233255.53341451
  -exchange      EXHF   =         0.00000000
  -V(xc)+E(xc)   XCENC  =      2258.12076896
  PAW double counting   =     72556.24217133   -72001.47872397
  entropy T*S    EENTRO =         0.00000000
  eigenvalues    EBANDS =    -12212.90567890
  atomic energy  EATOM  =     60267.80825831
  Solvation  Ediel_sol  =         0.00000000
  ---------------------------------------------------
  free energy    TOTEN  =      -395.82373327 eV

  energy without entropy =     -395.82373327  energy(sigma->0) =     -395.82373327


--------------------------------------------------------------------------------------------------------




 average (electrostatic) potential at core
  the test charge radii are     1.0818  0.9698
  (the norm of the test charge is              1.0000)
       1 -84.2004       2 -84.1812       3 -84.1847       4 -84.1813       5 -84.1554
       6 -84.1792       7 -84.2004       8 -84.1546       9 -84.1839      10 -84.1830
      11 -84.1554      12 -84.2005      13 -84.1467      14 -84.1458      15 -84.1458
      16 -84.1839      17 -84.1536      18 -84.1812      19 -84.1536      20 -84.1830
      21 -84.1546      22 -84.1847      23 -84.1839      24 -84.1839      25 -84.1817
      26 -93.8705      27 -93.8947      28 -93.8661      29 -93.8714      30 -93.8718
      31 -93.8763      32 -93.8709      33 -93.8714      34 -93.8599      35 -93.8723
      36 -93.8710      37 -93.8661      38 -93.8611      39 -93.9571      40 -93.8871
      41 -93.8843      42 -93.8709      43 -93.9578      44 -93.8879      45 -93.8843
      46 -93.8919      47 -93.8746      48 -93.8920      49 -93.8947      50 -93.8871
      51 -93.8763      52 -93.8744      53 -93.8599      54 -93.8827      55 -93.8710
      56 -93.8661      57 -93.8618      58 -93.8843      59 -93.9571      60 -93.8888
      61 -93.8879      62 -93.9578      63 -93.7817      64 -93.8888      65 -93.9586
      66 -93.8618      67 -93.9586      68 -93.8767      69 -93.8949      70 -93.8744
      71 -93.8919      72 -93.8611      73 -93.8843      74 -93.8827
 
 
 
 E-fermi :  -2.6548     XC(G=0):  -3.7578     alpha+bet : -3.5561

 Fermi energy:        -2.6548091055

 spin component 1

 k-point     1 :       0.0000    0.0000    0.0000
  band No.  band energies     occupation 
      1     -63.4960      1.00000
      2     -63.4905      1.00000
      3     -63.4905      1.00000
      4     -63.4844      1.00000
      5     -63.4800      1.00000
      6     -63.4778      1.00000
      7     -63.4773      1.00000
      8     -63.4673      1.00000
      9     -63.4671      1.00000
     10     -63.4622      1.00000
     11     -63.4619      1.00000
     12     -63.4606      1.00000
     13     -63.4591      1.00000
     14     -63.4575      1.00000
     15     -63.4571      1.00000
     16     -63.4538      1.00000
     17     -63.4425      1.00000
     18     -63.4411      1.00000
     19     -63.4406      1.00000
     20     -63.4328      1.00000
     21     -63.4319      1.00000
     22     -63.4306      1.00000
     23     -63.4302      1.00000
     24     -63.4153      1.00000
     25     -63.4147      1.00000
     26     -37.8243      1.00000
     27     -37.8240      1.00000
     28     -37.7991      1.00000
     29     -37.7942      1.00000
     30     -37.7942      1.00000
     31     -37.7904      1.00000
     32     -37.7866      1.00000
     33     -37.7863      1.00000
     34     -37.7850      1.00000
     35     -37.7762      1.00000
     36     -37.7758      1.00000
     37     -37.7480      1.00000
     38     -37.7255      1.00000
     39     -37.7255      1.00000
     40     -37.7220      1.00000
     41     -37.7061      1.00000
     42     -37.7060      1.00000
     43     -37.6723      1.00000
     44     -37.6632      1.00000
     45     -37.6434      1.00000
     46     -37.6431      1.00000
     47     -37.6420      1.00000
     48     -37.6319      1.00000
     49     -37.6318      1.00000
     50     -37.6315      1.00000
     51     -37.6209      1.00000
     52     -37.6196      1.00000
     53     -37.6194      1.00000
     54     -37.6193      1.00000
     55     -37.6155      1.00000
     56     -37.6154      1.00000
     57     -37.6097      1.00000
     58     -37.6096      1.00000
     59     -37.6006      1.00000
     60     -37.6004      1.00000
     61     -37.6002      1.00000
     62     -37.5959      1.00000
     63     -37.5958      1.00000
     64     -37.5956      1.00000
     65     -37.5876      1.00000
     66     -37.5853      1.00000
     67     -37.5824      1.00000
     68     -37.5822      1.00000
     69     -37.5794      1.00000
     70     -37.5793      1.00000
     71     -37.5745      1.00000
     72     -37.5709      1.00000
     73     -37.5706      1.00000
     74     -37.5690      1.00000
     75     -37.5675      1.00000
     76     -37.5637      1.00000
     77     -37.5635      1.00000
     78     -37.5620      1.00000
     79     -37.5579      1.00000
     80     -37.5475      1.00000
     81     -37.5475      1.00000
     82     -37.5385      1.00000
     83     -37.5380      1.00000
     84     -37.5362      1.00000
     85     -37.5353      1.00000
     86     -37.5350      1.00000
     87     -37.5327      1.00000
     88     -37.5227      1.00000
     89     -37.5226      1.00000
     90     -37.5189      1.00000
     91     -37.5062      1.00000
     92     -37.5060      1.00000
     93     -37.4779      1.00000
     94     -37.4778      1.00000
     95     -37.4778      1.00000
     96     -37.4546      1.00000
     97     -37.4458      1.00000
     98     -37.4455      1.00000
     99     -37.3785      1.00000
    100     -37.3778      1.00000
    101     -16.7279      1.00000
    102     -16.1932      1.00000
    103     -16.1926      1.00000
    104     -16.1840      1.00000
    105     -16.1761      1.00000
    106     -16.1755      1.00000
    107     -16.0938      1.00000
    108     -15.4480      1.00000
    109     -15.3446      1.00000
    110     -15.3441      1.00000
    111     -15.3282      1.00000
    112     -15.3279      1.00000
    113     -15.3068      1.00000
    114     -15.2715      1.00000
    115     -15.2374      1.00000
    116     -15.2369      1.00000
    117     -15.2158      1.00000
    118     -15.2101      1.00000
    119     -15.2096      1.00000
    120     -15.1843      1.00000
    121     -15.0879      1.00000
    122     -15.0871      1.00000
    123     -15.0776      1.00000
    124     -15.0733      1.00000
    125     -15.0728      1.00000
    126     -14.9759      1.00000
    127     -14.8875      1.00000
    128     -14.8870      1.00000
    129     -14.8617      1.00000
    130     -14.8613      1.00000
    131     -14.8490      1.00000
    132     -14.8250      1.00000
    133     -14.7877      1.00000
    134     -14.7871      1.00000
    135     -14.7789      1.00000
    136     -14.7712      1.00000
    137     -14.7707      1.00000
    138     -14.7054      1.00000
    139     -14.6863      1.00000
    140     -14.6834      1.00000
    141     -14.6833      1.00000
    142     -14.6730      1.00000
    143     -14.6726      1.00000
    144     -14.6253      1.00000
    145     -14.5922      1.00000
    146     -14.5920      1.00000
    147     -14.5801      1.00000
    148     -14.5797      1.00000
    149     -14.5713      1.00000
    150      -8.2852      1.00000
    151      -8.2596      1.00000
    152      -8.2186      1.00000
    153      -8.2185      1.00000
    154      -8.2041      1.00000
    155      -8.1561      1.00000
    156      -8.1560      1.00000
    157      -7.9216      1.00000
    158      -7.9007      1.00000
    159      -7.9006      1.00000
    160      -7.8892      1.00000
    161      -7.8752      1.00000
    162      -7.8751      1.00000
    163      -7.8667      1.00000
    164      -7.8409      1.00000
    165      -7.8343      1.00000
    166      -7.8343      1.00000
    167      -7.7578      1.00000
    168      -7.7575      1.00000
    169      -7.7542      1.00000
    170      -7.7429      1.00000
    171      -7.7428      1.00000
    172      -7.7369      1.00000
    173      -7.7366      1.00000
    174      -7.7320      1.00000
    175      -7.6989      1.00000
    176      -7.6987      1.00000
    177      -7.6845      1.00000
    178      -7.5735      1.00000
[...]
  215              m_sumb_d                              0.101135                   1272   6
  216          m_sumb_d                              0.000219                          1   4
  217        fordep                                0.119159                            1   3
  218          setdij_                               0.118869                          6   4
  219            m_sumb_d                              0.010019                        6   5
  220          m_sumb_d                              0.000084                          1   4
  221        setdij_                               0.394847                           20   3
  222          m_sumb_d                              0.032658                         20   4
  223        set_dd_magatom                        0.000001                            1   3
  224        set_dd_paw                            2.849183                            1   3
  225          set_rsgf_all                          0.000001                          1   4
  226          m_sumb_d                              2.848771                          8   4
  227        strkin                                0.027293                            1   3
  228          m_sumb_d                              0.001192                          1   4
  229        strelo                                0.022415                            1   3
  230          m_sumb_d                              0.002476                          2   4
  231        strnlr                               18.448381                            1   3
  232          rspher_all                            0.099372                          9   4
  233          phaser                                0.057603                         18   4
  234          rpro_isp                             18.255517                         18   4
  235            fftwav_mpi                           15.874807                     3816   5
  236              fft3d_mpi                            13.305655                   3816   6
  237                fftbas_mpi                           13.289301                 3816   7
  238                  fftbas_plan_mpi                      13.277739               3816   8
  239                    dfftw_execute                         5.405932            11448   9
  240                    map_forward                           5.869756             7632   9
  241                      map_gather                            0.901628           3816  10
  242                      m_alltoallv_z                         2.329035           3816  10
  243                      map_scatter                           1.221995           3816  10
  244            rpromu                                2.353117                      972   5
  245              crrexp_mul_wave                       0.716501                 282384   6
  246              rpromu_gemm                           0.774903                  71928   6
  247              m_sumb_d                              0.314663                   3816   6
  248          m_sumb_d                              0.005672                         10   4
  249        m_sumb_d                              0.009656                            7   3
  250        fft3d_mpi                             0.854988                           82   3
  251          fftbrc_mpi                            0.809423                         82   4
  252            fftbas_plan_mpi                       0.809119                       82   5
  253              dfftw_execute                         0.212048                    246   6
  254              map_forward                           0.231426                     80   6
  255                map_gather                            0.062965                   40   7
  256                m_alltoallv_z                         0.142401                   40   7
  257                map_scatter                           0.025301                   40   7
  258              map_backward                          0.314934                     84   6
  259                map_gather                            0.031540                   42   7
  260                m_alltoallv_z                         0.166149                   42   7
  261                map_scatter                           0.116366                   42   7
  262        forhar                                0.482602                            2   3
  263          m_sumb_d                              0.007247                          2   4
  264        strehar                               0.013151                            1   3
  265          m_sumb_d                              0.000360                          1   4
  266        chggra                                0.045932                            1   3
  267          fft3d_mpi                             0.030259                          3   4
  268            fftbrc_mpi                            0.028573                        3   5
  269              fftbas_plan_mpi                       0.028563                      3   6
  270                dfftw_execute                         0.007628                    9   7
  271                map_backward                          0.006444                    2   7
  272                  map_gather                            0.000885                  1   8
  273                  m_alltoallv_z                         0.003216                  1   8
  274                  map_scatter                           0.002312                  1   8
  275                map_forward                           0.012612                    4   7
  276                  map_gather                            0.003716                  2   8
  277                  m_alltoallv_z                         0.007344                  2   8
  278                  map_scatter                           0.001504                  2   8
  279          m_sumb_d                              0.000113                          2   4
  280          pothar                                0.005332                          1   4
  281            m_sumb_d                              0.003596                        1   5
  282        m_bcast_d                             0.423420                            2   3
  283      potlok                                6.479808                              1   2
  284        fft3d_mpi                             0.900947                           86   3
  285          fftbrc_mpi                            0.854525                         86   4
  286            fftbas_plan_mpi                       0.854290                       86   5
  287              dfftw_execute                         0.213468                    258   6
  288              map_forward                           0.261755                     88   6
  289                map_gather                            0.069282                   46   7
  290                m_alltoallv_z                         0.161717                   46   7
  291                map_scatter                           0.029896                   46   7
  292              map_backward                          0.326353                     84   6
  293                map_gather                            0.031590                   42   7
  294                m_alltoallv_z                         0.173906                   42   7
  295                map_scatter                           0.119984                   42   7
  296        m_sumb_d                              0.009604                            8   3
  297        fewald                                0.001548                            2   3
  298          rsp                                   0.001301                          2   4
  299          rcp                                   0.000221                          2   4
  300        pothar                                0.002401                            1   3
  301          m_sumb_d                              0.000714                          1   4
  302        m_bcast_d                             0.003609                            2   3
  303      potlok_metagga                        0.000027                              1   2
  304      set_dd_magatom                        0.000000                              1   2
  305      set_dd_paw                            2.854149                              1   2
  306        set_rsgf_all                          0.000002                            1   3
  307        m_sumb_d                              2.853677                            8   3
  308      densta                             1409.610230                              1   2
  309        m_bcast_z                             0.000945                            1   3
 
 Flat profile
 ============
 
             routine name                   CPU           calls
 ---------------------------------------------------------------
 densta                               1422.793145          11
 total_time                            705.465327           1
 ggemm                                 151.934299        9379
 dfftw_execute                          65.551941      136254
 m_bcast_z                              45.818912       20004
 orth1                                  43.181525       21833
 m_sumb_d                               33.964269       92148
 eddav                                  27.361464          10
 m_alltoallv_z                          26.510950       45424
 fftbas_plan_mpi                        23.339942       45418
 sphpro_fast                            21.764693           2
 m_alltoall_d                           21.706533      107986
 fftwav_mpi                             18.022863       30632
 map_scatter                            14.607118       45424
 map_gather                             13.451833       45424
 vhamil                                 12.466288       14518
 potlok                                 12.328492           2
 map_forward                            10.940398       61534
 lincom                                  5.966847          44
 lapack                                  5.680848        7259
 force_and_stress                        5.634121           1
 crrexp_mul_work_add                     3.957335     1074332
 gemm                                    3.846841      537166
 rpromu_gemm                             3.686992      484182
 crrexp_mul_wave                         3.012757     1168460
 rpromu                                  2.585780        6543
 w1_copy                                 2.549194       43554
 racc0mu                                 2.514008        7259
 eccp                                    2.269538        4240
 redis_pw                                2.155535       39402
 fftext_mpi                              1.694070       14518
 m_bcast_d                               1.424646       15089
 set_charge                              1.078926           1
 kinhamil                                1.049333       14518
 apply_precond                           0.931475       10278
 redis_proj                              0.611789       49684
 setdij_                                 0.536982          29
 overl                                   0.525793       24800
 setup_precond                           0.480298        4240
 forhar                                  0.475355           2
 fft3d_mpi                               0.326308       45418
 stufak                                  0.301776           2
 map_backward                            0.279197       29302
 forloc                                  0.235667           1
 overl1                                  0.234679       14518
 elmin                                   0.224958           1
 phaser                                  0.215053          66
 hamiltmu                                0.202406        7259
 pw_charge                               0.184567         324
 newband                                 0.162776        7299
 rspher_all                              0.157971          14
 fftbas_mpi                              0.138593       45150
 choleski                                0.100332           4
 raccmu_                                 0.081996        7259
 inisym                                  0.080842           1
 rpro_isp                                0.040405          26
 augmentation_charge                     0.037145           1
 w1_projall                              0.034844        5139
 strnlr                                  0.030218           1
 strkin                                  0.026101           1
 strelo                                  0.019939           1
 truncate_high_frequency_w1              0.018372       18758
 strehar                                 0.012791           1
 soft_charge                             0.011007           1
 chggra                                  0.010227           1
 fornlr                                  0.010041           1
 fewald                                  0.005592           5
 orthch                                  0.005301           1
 pothar                                  0.005205           3
 rsp                                     0.004490           5
 depsum                                  0.002301           1
 set_dd_paw                              0.001866           3
 fftbrc_mpi                              0.000844         268
 rcp                                     0.000667           5
 fft_gq                                  0.000385           1
 posmap                                  0.000310           2
 crpa_reader                             0.000243           1
 fordep                                  0.000206           1
 proall                                  0.000074           1
 potlok_metagga                          0.000044           2
 vectorpot                               0.000028           2
 set_rsgf_all                            0.000022           3
 rotate_active_occupied_orbital          0.000017           1
 set_dd_magatom                          0.000011           3
 redis_pw_over_bands                     0.000001           1
 ---------------------------------------------------------------
  summed up times    2727.08427500725     
 
 Accumulative profile
 ====================
 
             routine name                   CPU           calls
 ---------------------------------------------------------------
 total_time                           2727.084275           1
 densta                               1422.798021          11
 elmin                                 478.762863           1
 eddav                                 453.646448          10
 fft3d_mpi                             155.147125       45418
 fftbas_plan_mpi                       154.681380       45418
 fftbas_mpi                            152.166822       45150
 ggemm                                 151.934299        9379
 fftwav_mpi                            124.116744       30632
 hamiltmu                               73.936746        7259
 dfftw_execute                          65.551941      136254
 kinhamil                               48.998018       14518
 fftext_mpi                             47.948685       14518
 map_forward                            46.991168       61534
 m_bcast_z                              45.818912       20004
 orth1                                  43.181525       21833
 force_and_stress                       38.551170           1
 m_sumb_d                               33.964269       92148
 m_alltoallv_z                          26.510950       45424
 rpro_isp                               26.407047          26
 newband                                23.091154        7299
 sphpro_fast                            22.057883           2
 m_alltoall_d                           21.706533      107986
 map_backward                           18.798328       29302
 strnlr                                 18.448381           1
 redis_pw                               17.598840       39402
 map_scatter                            14.607118       45424
 potlok                                 14.165048           2
 map_gather                             13.451833       45424
 vhamil                                 12.466288       14518
 raccmu_                                12.270033        7259
 racc0mu                                11.953358        7259
 rpromu                                 10.835052        6543
 set_dd_paw                              8.624487           3
 w1_projall                              7.455502        5139
 redis_proj                              6.875016       49684
 fornlr                                  6.163027           1
 lincom                                  5.966847          44
 lapack                                  5.680848        7259
 crrexp_mul_work_add                     3.957335     1074332
 gemm                                    3.846841      537166
 rpromu_gemm                             3.686992      484182
 crrexp_mul_wave                         3.012757     1168460
 set_charge                              2.826461           1
 fftbrc_mpi                              2.653995         268
 w1_copy                                 2.549194       43554
 eccp                                    2.468181        4240
 proall                                  2.060903           1
 soft_charge                             1.529925           1
 m_bcast_d                               1.424646       15089
 orthch                                  1.117154           1
 apply_precond                           0.931475       10278
 setup_precond                           0.654350        4240
 setdij_                                 0.585915          29
 overl                                   0.525793       24800
 forhar                                  0.482602           2
 stufak                                  0.301776           2
 forloc                                  0.236533           1
 overl1                                  0.234679       14518
 phaser                                  0.215053          66
 pw_charge                               0.184567         324
 rspher_all                              0.157971          14
 fewald                                  0.138953           5
 fordep                                  0.119159           1
 choleski                                0.100332           4
 depsum                                  0.082246           1
 inisym                                  0.081152           1
 augmentation_charge                     0.063320           1
 chggra                                  0.045932           1
 strkin                                  0.027293           1
 strelo                                  0.022415           1
 truncate_high_frequency_w1              0.018372       18758
 strehar                                 0.013151           1
 pothar                                  0.012490           3
 fft_gq                                  0.008060           1
 rsp                                     0.004490           5
 rcp                                     0.000667           5
 posmap                                  0.000310           2
 crpa_reader                             0.000243           1
 potlok_metagga                          0.000044           2
 vectorpot                               0.000028           2
 set_rsgf_all                            0.000022           3
 rotate_active_occupied_orbital          0.000017           1
 set_dd_magatom                          0.000011           3
 redis_pw_over_bands                     0.000001           1
 ---------------------------------------------------------------
 
Profiling took   2.610263  1.325248  0.009638  0.009038 seconds
Profiling took   2.560669 seconds
