 vasp.6.3.2 27Jun22 (build Jan 03 2024 23:05:41) complex                        
  
 executed on           IFC15_impi date 2024.08.06  06:27:08
 running  512 mpi-ranks, with    1 threads/rank
 distrk:  each k-point on   64 cores,    8 groups
 distr:  one band on NCORE=  16 cores,    4 groups


--------------------------------------------------------------------------------------------------------


 INCAR:
   ENCUT = 600.00
   EDIFF = 1.00e-06
   ALGO = Normal
   ISMEAR = -5
   LORBIT = 11
   ICHARG = 11
   EMIN = -8.
   EMAX = 5.
   NEDOS = 3000
   LCHARG = .TRUE.
   LWAVE = .FALSE.
   LREAL = Auto
   NELM = 2000
   NCORE = 16
   KPAR = 8
   ISPIN = 2
   GGA = MK
   PARAM1 = 0.1234
   PARAM2 = 1.0
   AGGAC = 0.0
   LUSE_VDW = .TRUE.
   LASPH = .TRUE.
   LDIPOL = .TRUE.
   DIPOL = 0.5 0.5 0.5
   IDIPOL = 3

 POTCAR:    PAW_PBE Mo_sv 02Feb2006               
 POTCAR:    PAW_PBE S 06Sep2000                   
 -----------------------------------------------------------------------------
|                                                                             |
|           W    W    AA    RRRRR   N    N  II  N    N   GGGG   !!!           |
|           W    W   A  A   R    R  NN   N  II  NN   N  G    G  !!!           |
|           W    W  A    A  R    R  N N  N  II  N N  N  G       !!!           |
|           W WW W  AAAAAA  RRRRR   N  N N  II  N  N N  G  GGG   !            |
|           WW  WW  A    A  R   R   N   NN  II  N   NN  G    G                |
|           W    W  A    A  R    R  N    N  II  N    N   GGGG   !!!           |
|                                                                             |
|     You use a magnetic or noncollinear calculation, but did not specify     |
|     the initial magnetic moment with the MAGMOM tag. Note that a            |
|     default of 1 will be used for all atoms. This ferromagnetic setup       |
|     may break the symmetry of the crystal, in particular it may rule        |
|     out finding an antiferromagnetic solution. Thence, we recommend         |
|     setting the initial magnetic moment manually or verifying carefully     |
|     that this magnetic setup is desired.                                    |
|                                                                             |
 -----------------------------------------------------------------------------

 -----------------------------------------------------------------------------
|                                                                             |
|               ----> ADVICE to this user running VASP <----                  |
|                                                                             |
|     You have switched on vdW-DFT.                                           |
|     This routine was written and supplied by Jiri Klimes. We recommend      |
|     that you carefully read and cite the following publications:            |
|       J. Klimes, D.R. Bowler, A. Michelides                                 |
|          J. Phys.: Cond Matt. 22 022201 (2010)                              |
|       J. Klimes, D.R. Bowler, A. Michelides                                 |
|          Phys. Rev. B. 83, 195131 (2011)                                    |
|     and references therein.                                                 |
|                                                                             |
 -----------------------------------------------------------------------------

 POTCAR:    PAW_PBE Mo_sv 02Feb2006               
   SHA256 =  2731df97e41766cc617548c5a8267718fdef1f509ac6bafa01e745abea2bdfaa Mo_sv/POTCAR          
   COPYR  = (c) Copyright 02Feb2006 Georg Kresse                                                    
   COPYR  = This file is part of the software VASP. Any use, copying, and all other rights are regul
   COPYR  = If you do not have a valid VASP license, you may not use, copy or distribute this file. 
   VRHFIN =Mo: 4p5s4d                                                                               
   LEXCH  = PE                                                                                      
   EATOM  =  1862.2866 eV,  136.8742 Ry                                                             
                                                                                                    
   TITEL  = PAW_PBE Mo_sv 02Feb2006                                                                 
   LULTRA =        F    use ultrasoft PP ?                                                          
   IUNSCR =        1    unscreen: 0-lin 1-nonlin 2-no                                               
   RPACOR =    2.200    partial core radius                                                         
   POMASS =   95.940; ZVAL   =   14.000    mass and valenz                                          
   RCORE  =    2.500    outmost cutoff radius                                                       
   RWIGS  =    2.750; RWIGS  =    1.455    wigner-seitz radius (au A)                               
   ENMAX  =  242.676; ENMIN  =  182.007 eV                                                          
   ICORE  =        3    local potential                                                             
   LCOR   =        T    correct aug charges                                                         
   LPAW   =        T    paw PP                                                                      
   EAUG   =  446.014                                                                                
   DEXC   =    0.000                                                                                
   RMAX   =    2.563    core radius for proj-oper                                                   
   RAUG   =    1.300    factor for augmentation sphere                                              
   RDEP   =    2.641    radius for radial grids                                                     
   RDEPT  =    2.031    core radius for aug-charge                                                  
                                                                                                    
   Atomic configuration                                                                             
   11 entries                                                                                       
     n  l   j            E        occ.                                                              
     1  0  0.50    -19819.0341   2.0000                                                             
     2  0  0.50     -2799.0127   2.0000                                                             
     2  1  1.50     -2502.0276   6.0000                                                             
     3  0  0.50      -476.4449   2.0000                                                             
     3  1  1.50      -379.1496   6.0000                                                             
     3  2  2.50      -220.9367  10.0000                                                             
     4  0  0.50       -64.3378   2.0000                                                             
     5  0  0.50        -4.0862   1.0000                                                             
     4  1  1.50       -38.4773   6.0000                                                             
     4  2  2.50        -3.7535   5.0000                                                             
     4  3  2.50        -1.3606   0.0000                                                             
   Description                                                                                      
     l       E           TYP  RCUT    TYP  RCUT                                                     
     0    -64.3377829     23  2.100                                                                 
     0     -4.0861640     23  2.400                                                                 
     1    -38.4772993     23  2.100                                                                 
     1     13.6058260     23  2.100                                                                 
     2     -3.7534941     23  2.400                                                                 
     2     -5.1140767     23  2.400                                                                 
     3     -4.0817478     23  2.500                                                                 
  local pseudopotential read in
  partial core-charges read in
  partial kinetic energy density read in
  atomic valenz-charges read in
  non local Contribution for L=           0  read in
    real space projection operators read in
  non local Contribution for L=           0  read in
    real space projection operators read in
  non local Contribution for L=           1  read in
    real space projection operators read in
  non local Contribution for L=           1  read in
    real space projection operators read in
  non local Contribution for L=           2  read in
    real space projection operators read in
  non local Contribution for L=           2  read in
    real space projection operators read in
    PAW grid and wavefunctions read in
 
   number of l-projection  operators is LMAX  =           6
   number of lm-projection operators is LMMAX =          18
 
 POTCAR:    PAW_PBE S 06Sep2000                   
   SHA256 =  0fc7481fb0695f01bdc6462160264c5c84044ae9ec85a907d398b887a2bc3132 S/POTCAR              
   COPYR  = (c) Copyright 06Sep2000 Georg Kresse                                                    
   COPYR  = This file is part of the software VASP. Any use, copying, and all other rights are regul
   COPYR  = If you do not have a valid VASP license, you may not use, copy or distribute this file. 
   VRHFIN =S : s2p4                                                                                 
   LEXCH  = PE                                                                                      
   EATOM  =   276.8230 eV,   20.3459 Ry                                                             
                                                                                                    
   TITEL  = PAW_PBE S 06Sep2000                                                                     
   LULTRA =        F    use ultrasoft PP ?                                                          
   IUNSCR =        1    unscreen: 0-lin 1-nonlin 2-no                                               
   RPACOR =    1.500    partial core radius                                                         
   POMASS =   32.066; ZVAL   =    6.000    mass and valenz                                          
   RCORE  =    1.900    outmost cutoff radius                                                       
   RWIGS  =    2.200; RWIGS  =    1.164    wigner-seitz radius (au A)                               
   ENMAX  =  258.689; ENMIN  =  194.016 eV                                                          
   ICORE  =        2    local potential                                                             
   LCOR   =        T    correct aug charges                                                         
   LPAW   =        T    paw PP                                                                      
   EAUG   =  335.092                                                                                
   DEXC   =    0.000                                                                                
   RMAX   =    1.942    core radius for proj-oper                                                   
   RAUG   =    1.300    factor for augmentation sphere                                              
   RDEP   =    1.954    radius for radial grids                                                     
   RDEPT  =    1.744    core radius for aug-charge                                                  
                                                                                                    
   Atomic configuration                                                                             
    6 entries                                                                                       
     n  l   j            E        occ.                                                              
     1  0  0.50     -2405.8406   2.0000                                                             
     2  0  0.50      -211.7007   2.0000                                                             
     2  1  1.50      -156.4958   6.0000                                                             
     3  0  0.50       -17.2562   2.0000                                                             
     3  1  0.50        -7.0085   4.0000                                                             
     3  2  1.50        -6.8029   0.0000                                                             
   Description                                                                                      
     l       E           TYP  RCUT    TYP  RCUT                                                     
     0    -17.2561641     23  1.900                                                                 
     0    -15.8743224     23  1.900                                                                 
     1     -7.0085400     23  1.900                                                                 
     1     -2.7779785     23  1.900                                                                 
     2     -6.8029130     23  1.900                                                                 
  local pseudopotential read in
  partial core-charges read in
  partial kinetic energy density read in
  atomic valenz-charges read in
  non local Contribution for L=           0  read in
    real space projection operators read in
  non local Contribution for L=           0  read in
    real space projection operators read in
  non local Contribution for L=           1  read in
    real space projection operators read in
  non local Contribution for L=           1  read in
    real space projection operators read in
    PAW grid and wavefunctions read in
 
   number of l-projection  operators is LMAX  =           4
   number of lm-projection operators is LMMAX =           8
 
 Optimization of the real space projectors (new method)

 maximal supplied QI-value         = 15.12
 optimisation between [QCUT,QGAM] = [ 12.55, 25.10] = [ 44.09,176.36] Ry 
 Optimized for a Real-space Cutoff    1.47 Angstroem

   l    n(q)    QCUT    max X(q) W(low)/X(q) W(high)/X(q)  e(spline) 
   0     11    12.548     3.559    0.18E-04    0.60E-05    0.19E-06
   0     11    12.548    20.730    0.37E-04    0.13E-04    0.98E-07
   1     11    12.548     3.279    0.80E-06    0.70E-06    0.27E-07
   1     11    12.548     4.693    0.72E-04    0.11E-03    0.38E-06
   2     10    12.548    67.616    0.34E-03    0.45E-03    0.54E-06
   2     10    12.548    62.420    0.34E-03    0.45E-03    0.54E-06
 Optimization of the real space projectors (new method)

 maximal supplied QI-value         = 19.84
 optimisation between [QCUT,QGAM] = [ 12.50, 25.00] = [ 43.76,175.03] Ry 
 Optimized for a Real-space Cutoff    1.06 Angstroem

   l    n(q)    QCUT    max X(q) W(low)/X(q) W(high)/X(q)  e(spline) 
   0      8    12.501   187.594    0.26E-03    0.17E-03    0.97E-07
   0      8    12.501   164.243    0.26E-03    0.17E-03    0.96E-07
   1      7    12.501    67.533    0.50E-03    0.61E-03    0.91E-07
   1      7    12.501    50.729    0.48E-03    0.60E-03    0.90E-07
 -----------------------------------------------------------------------------
|                                                                             |
|               ----> ADVICE to this user running VASP <----                  |
|                                                                             |
|     You enforced a specific xc type in the INCAR file but a different       |
|     type was found in the POTCAR file.                                      |
|     I HOPE YOU KNOW WHAT YOU ARE DOING!                                     |
|                                                                             |
 -----------------------------------------------------------------------------

  PAW_PBE Mo_sv 02Feb2006               :
 energy of atom  1       EATOM=-1862.2866
 kinetic energy error for atom=    0.0041 (will be added to EATOM!!)
  PAW_PBE S 06Sep2000                   :
 energy of atom  2       EATOM= -276.8230
 kinetic energy error for atom=    0.0009 (will be added to EATOM!!)
 
 
 POSCAR: Mo  S
  positions in direct lattice
  velocities in cartesian coordinates
 exchange correlation table for  LEXCH =       43
   RHO(1)=    0.500       N(1)  =     2000
   RHO(2)=  100.500       N(2)  =     4000

 VTST: version 4.1, (05/19/21)

 CHAIN: initializing optimizer
 
 OPT: Using VASP Dynamics algorithm
 CHAIN: Read ICHAIN            0
 
 POSCAR: Mo  S
  positions in direct lattice
  velocities in cartesian coordinates
 


--------------------------------------------------------------------------------------------------------


 ion  position               nearest neighbor table
   1  0.133  0.067  0.500- 159 2.41 144 2.41 138 2.41 162 2.41 147 2.41 141 2.41  62 3.16  20 3.16
                            49 3.16  71 3.16  72 3.16  67 3.16
   2  0.667  0.733  0.670- 194 2.41 106 2.41 117 2.41 197 2.41 108 2.41 114 2.41  32 3.16   8 3.16
                            37 3.16  64 3.16  55 3.16  42 3.16
   3  0.267  0.933  0.670- 216 2.41 140 2.41 155 2.41 143 2.41 219 2.41 149 2.41  74 3.16   9 3.16
                            51 3.16  28 3.16  50 3.16  25 3.16
   4  0.267  0.933  0.330- 218 2.41 142 2.41 148 2.41 215 2.41 139 2.41 146 2.41  75 3.16  10 3.16
                            52 3.16  70 3.16  29 3.16  24 3.16
   5  0.333  0.867  0.500- 214 2.41 198 2.41 208 2.41 217 2.41 136 2.41 211 2.41  30 3.16  23 3.16
                            12 3.16  71 3.16  72 3.16  53 3.16
   6  0.733  0.867  0.500- 110 2.41  89 2.41 119 2.41  76 2.41 116 2.41 100 2.41  67 3.16  49 3.16
                            46 3.16  22 3.16  30 3.16  34 3.16
   7  0.667  0.933  0.330- 105 2.41 202 2.41  94 2.41 107 2.41 199 2.41  97 2.41  29 3.16  11 3.16
                            33 3.16  26 3.16  63 3.16  16 3.16
   8  0.667  0.933  0.670- 106 2.41 200 2.41  96 2.41 134 2.41 108 2.41  93 2.41  28 3.16   2 3.16
                            32 3.16  27 3.16  64 3.16  17 3.16
   9  0.267  0.733  0.670- 157 2.41 216 2.41 210 2.41 137 2.41 219 2.41 213 2.41  51 3.16   3 3.16
                            56 3.16  28 3.16  13 3.16  32 3.16
  10  0.267  0.733  0.330- 145 2.41 218 2.41 212 2.41 215 2.41 158 2.41 209 2.41  52 3.16   4 3.16
                            57 3.16  29 3.16  14 3.16  33 3.16
  11  0.667  0.733  0.330- 196 2.41 105 2.41 115 2.41 193 2.41 107 2.41 118 2.41  33 3.16   7 3.16
                            38 3.16  63 3.16  41 3.16  69 3.16
  12  0.333  0.667  0.500- 192 2.41 179 2.41 208 2.41 205 2.41 195 2.41 211 2.41  34 3.16  15 3.16
                            30 3.16  59 3.16  53 3.16   5 3.16
  13  0.267  0.533  0.670- 181 2.41 173 2.41 210 2.41 207 2.41 176 2.41 213 2.41  56 3.16  18 3.16
                            60 3.16   9 3.16  37 3.16  32 3.16
  14  0.267  0.533  0.330- 206 2.41 175 2.41 212 2.41 180 2.41 209 2.41 172 2.41  57 3.16  19 3.16
                            61 3.16  10 3.16  38 3.16  33 3.16
  15  0.333  0.467  0.500- 179 2.41 186 2.41 150 2.41 205 2.41 189 2.41 153 2.41  39 3.16  12 3.16
                            34 3.16  20 3.16  59 3.16  62 3.16
  16  0.867  0.133  0.330-  90 2.41  94 2.41 124 2.41 132 2.41  97 2.41 102 2.41  63 3.16  66 3.16
                            26 3.16  47 3.16   7 3.16  61 3.16
  17  0.867  0.133  0.670- 104 2.41  96 2.41  88 2.41  91 2.41  93 2.41 122 2.41  64 3.16  65 3.16
                            27 3.16  48 3.16   8 3.16  60 3.16
  18  0.267  0.333  0.670- 167 2.41 181 2.41 152 2.41 170 2.41 207 2.41 178 2.41  60 3.16  13 3.16
                            65 3.16  37 3.16  43 3.16  50 3.16
  19  0.267  0.333  0.330- 169 2.41 206 2.41 154 2.41 180 2.41 166 2.41 151 2.41  61 3.16  14 3.16
                            66 3.16  38 3.16  44 3.16  70 3.16
  20  0.333  0.267  0.500- 203 2.41 144 2.41 150 2.41 183 2.41 147 2.41 153 2.41  45 3.16  71 3.16
                            39 3.16   1 3.16  62 3.16  15 3.16
  21  0.933  0.267  0.500- 123 2.41 131 2.41 165 2.41  81 2.41  80 2.41 168 2.41  31 3.16  49 3.16
                            22 3.16  62 3.16  73 3.16  59 3.16
  22  0.733  0.067  0.500- 101 2.41 131 2.41 110 2.41  95 2.41  80 2.41  76 2.41  49 3.16  31 3.16
                            21 3.16   6 3.16  23 3.16  30 3.16
  23  0.533  0.067  0.500- 220 2.41 101 2.41 198 2.41 223 2.41  95 2.41 136 2.41  71 3.16  45 3.16
                             5 3.16  31 3.16  30 3.16  22 3.16
  24  0.467  0.133  0.330- 204 2.41 148 2.41 184 2.41 221 2.41 146 2.41 201 2.41  26 3.16  35 3.16
                            29 3.16  44 3.16  70 3.16   4 3.16
  25  0.467  0.133  0.670- 222 2.41 155 2.41 182 2.41 224 2.41 149 2.41 185 2.41  27 3.16  36 3.16
                            28 3.16  43 3.16  50 3.16   3 3.16
  26  0.667  0.133  0.330-  94 2.41 204 2.41  84 2.41  97 2.41  78 2.41 221 2.41  24 3.16  29 3.16
                             7 3.16  16 3.16  35 3.16  47 3.16
  27  0.667  0.133  0.670-  96 2.41 222 2.41  79 2.41  93 2.41 224 2.41  85 2.41  25 3.16  28 3.16
                             8 3.16  17 3.16  36 3.16  48 3.16
  28  0.467  0.933  0.670- 200 2.41 216 2.41 222 2.41 134 2.41 219 2.41 224 2.41   8 3.16  32 3.16
                            27 3.16   9 3.16   3 3.16  25 3.16
  29  0.467  0.933  0.330- 202 2.41 218 2.41 204 2.41 199 2.41 215 2.41 221 2.41   7 3.16  33 3.16
                            26 3.16  10 3.16   4 3.16  24 3.16
  30  0.533  0.867  0.500- 198 2.41 110 2.41 192 2.41 136 2.41 195 2.41  76 2.41   5 3.16  12 3.16
                             6 3.16  23 3.16  34 3.16  22 3.16
  31  0.733  0.267  0.500- 123 2.41 101 2.41  77 2.41  81 2.41  95 2.41  87 2.41  21 3.16  22 3.16
                            73 3.16  23 3.16  45 3.16  40 3.16
  32  0.467  0.733  0.670- 194 2.41 210 2.41 200 2.41 197 2.41 213 2.41 134 2.41   2 3.16  28 3.16
                             8 3.16   9 3.16  37 3.16  13 3.16
  33  0.467  0.733  0.330- 196 2.41 212 2.41 202 2.41 193 2.41 209 2.41 199 2.41  11 3.16  29 3.16
                             7 3.16  10 3.16  38 3.16  14 3.16
  34  0.533  0.667  0.500- 192 2.41 119 2.41 186 2.41 195 2.41 116 2.41 189 2.41  12 3.16  39 3.16
                            15 3.16  30 3.16  46 3.16   6 3.16
  35  0.667  0.333  0.330- 184 2.41 127 2.41  84 2.41 130 2.41 201 2.41  78 2.41  44 3.16  41 3.16
                            24 3.16  68 3.16  47 3.16  26 3.16
  36  0.667  0.333  0.670- 182 2.41 129 2.41  79 2.41 185 2.41 126 2.41  85 2.41  43 3.16  42 3.16
                            25 3.16  58 3.16  48 3.16  27 3.16
  37  0.467  0.533  0.670- 188 2.41 181 2.41 194 2.41 191 2.41 207 2.41 197 2.41  42 3.16  43 3.16
                             2 3.16  18 3.16  13 3.16  32 3.16
  38  0.467  0.533  0.330- 190 2.41 206 2.41 196 2.41 135 2.41 180 2.41 193 2.41  41 3.16  44 3.16
                            11 3.16  19 3.16  14 3.16  33 3.16
  39  0.533  0.467  0.500- 186 2.41 133 2.41 203 2.41 189 2.41 183 2.41 128 2.41  15 3.16  34 3.16
                            20 3.16  46 3.16  45 3.16  40 3.16
  40  0.733  0.467  0.500- 133 2.41 109 2.41  77 2.41 128 2.41  87 2.41 113 2.41  73 3.16  46 3.16
                            54 3.16  39 3.16  31 3.16  45 3.16
  41  0.667  0.533  0.330- 127 2.41 190 2.41 115 2.41 130 2.41 135 2.41 118 2.41  38 3.16  35 3.16
                            44 3.16  11 3.16  68 3.16  69 3.16
  42  0.667  0.533  0.670- 129 2.41 188 2.41 117 2.41 126 2.41 191 2.41 114 2.41  37 3.16  36 3.16
                            43 3.16   2 3.16  58 3.16  55 3.16
  43  0.467  0.333  0.670- 182 2.41 152 2.41 188 2.41 185 2.41 178 2.41 191 2.41  36 3.16  37 3.16
                            42 3.16  25 3.16  18 3.16  50 3.16
  44  0.467  0.333  0.330- 184 2.41 154 2.41 190 2.41 201 2.41 135 2.41 151 2.41  35 3.16  38 3.16
                            41 3.16  24 3.16  19 3.16  70 3.16
  45  0.533  0.267  0.500- 203 2.41  77 2.41 220 2.41 183 2.41  87 2.41 223 2.41  20 3.16  23 3.16
                            71 3.16  39 3.16  31 3.16  40 3.16
  46  0.733  0.667  0.500- 125 2.41 133 2.41 119 2.41 128 2.41  86 2.41 116 2.41  54 3.16  40 3.16
                            67 3.16  39 3.16   6 3.16  34 3.16
  47  0.867  0.333  0.330- 124 2.41  84 2.41 120 2.41 102 2.41  78 2.41 111 2.41  68 3.16  57 3.16
                            16 3.16  61 3.16  35 3.16  26 3.16
  48  0.867  0.333  0.670-  88 2.41  79 2.41 112 2.41  85 2.41 122 2.41 121 2.41  58 3.16  56 3.16
                            17 3.16  36 3.16  60 3.16  27 3.16
  49  0.933  0.067  0.500- 131 2.41 159 2.41  89 2.41  80 2.41 162 2.41 100 2.41  22 3.16  21 3.16
                             6 3.16  62 3.16   1 3.16  67 3.16
  50  0.267  0.133  0.670- 155 2.41 161 2.41 152 2.41 149 2.41 164 2.41 178 2.41  65 3.16  74 3.16
                            25 3.16   3 3.16  18 3.16  43 3.16
  51  0.067  0.733  0.670- 157 2.41 140 2.41  92 2.41 137 2.41 143 2.41  82 2.41   9 3.16  74 3.16
                             3 3.16  56 3.16  55 3.16  58 3.16
  52  0.067  0.733  0.330- 145 2.41 142 2.41  83 2.41 158 2.41 139 2.41 103 2.41  10 3.16  75 3.16
                             4 3.16  69 3.16  57 3.16  68 3.16
  53  0.133  0.667  0.500- 177 2.41 208 2.41 171 2.41 156 2.41 174 2.41 211 2.41  59 3.16  73 3.16
                            12 3.16  72 3.16  54 3.16   5 3.16
  54  0.933  0.667  0.500- 125 2.41 109 2.41 177 2.41  86 2.41 113 2.41 156 2.41  46 3.16  73 3.16
                            40 3.16  67 3.16  53 3.16  72 3.16
  55  0.867  0.733  0.670-  92 2.41 117 2.41  99 2.41 114 2.41  82 2.41 225 2.41  64 3.16  74 3.16
                            58 3.16   2 3.16  51 3.16  42 3.16
  56  0.067  0.533  0.670- 173 2.41 157 2.41 112 2.41 176 2.41 137 2.41 121 2.41  13 3.16  60 3.16
                             9 3.16  48 3.16  58 3.16  51 3.16
  57  0.067  0.533  0.330- 175 2.41 145 2.41 120 2.41 172 2.41 158 2.41 111 2.41  14 3.16  61 3.16
                            10 3.16  47 3.16  52 3.16  68 3.16
  58  0.867  0.533  0.670- 112 2.41 129 2.41  92 2.41 121 2.41 126 2.41  82 2.41  48 3.16  36 3.16
                            42 3.16  55 3.16  56 3.16  51 3.16
  59  0.133  0.467  0.500- 171 2.41 179 2.41 165 2.41 174 2.41 168 2.41 205 2.41  53 3.16  12 3.16
                            15 3.16  62 3.16  73 3.16  21 3.16
  60  0.067  0.333  0.670- 167 2.41 173 2.41  88 2.41 170 2.41 176 2.41 122 2.41  18 3.16  56 3.16
                            13 3.16  48 3.16  65 3.16  17 3.16
  61  0.067  0.333  0.330- 169 2.41 175 2.41 124 2.41 166 2.41 172 2.41 102 2.41  19 3.16  57 3.16
                            14 3.16  47 3.16  66 3.16  16 3.16
  62  0.133  0.267  0.500- 165 2.41 150 2.41 159 2.41 168 2.41 153 2.41 162 2.41   1 3.16  49 3.16
                            21 3.16  20 3.16  59 3.16  15 3.16
  63  0.867  0.933  0.330- 187 2.41 105 2.41  90 2.41  98 2.41 107 2.41 132 2.41  69 3.16  11 3.16
                            16 3.16   7 3.16  75 3.16  66 3.16
  64  0.867  0.933  0.670-  99 2.41 106 2.41 104 2.41 225 2.41 108 2.41  91 2.41  55 3.16   2 3.16
                            17 3.16   8 3.16  74 3.16  65 3.16
  65  0.067  0.133  0.670- 161 2.41 167 2.41 104 2.41 164 2.41 170 2.41  91 2.41  50 3.16  18 3.16
                            17 3.16  60 3.16  74 3.16  64 3.16
  66  0.067  0.133  0.330- 163 2.41 169 2.41  90 2.41 160 2.41 166 2.41 132 2.41  70 3.16  19 3.16
                            61 3.16  16 3.16  75 3.16  63 3.16
  67  0.933  0.867  0.500-  89 2.41 125 2.41 138 2.41 100 2.41  86 2.41 141 2.41   6 3.16  46 3.16
                            49 3.16  54 3.16  72 3.16   1 3.16
  68  0.867  0.533  0.330- 120 2.41 127 2.41  83 2.41 111 2.41 103 2.41 130 2.41  47 3.16  35 3.16
                            41 3.16  57 3.16  69 3.16  52 3.16
  69  0.867  0.733  0.330-  83 2.41 115 2.41 187 2.41 103 2.41 118 2.41  98 2.41  63 3.16  75 3.16
                            11 3.16  68 3.16  52 3.16  41 3.16
  70  0.267  0.133  0.330- 148 2.41 163 2.41 154 2.41 146 2.41 160 2.41 151 2.41  66 3.16  75 3.16
                            24 3.16   4 3.16  19 3.16  44 3.16
  71  0.333  0.067  0.500- 144 2.41 220 2.41 214 2.41 147 2.41 223 2.41 217 2.41  23 3.16  20 3.16
                            45 3.16   5 3.16   1 3.16  72 3.16
  72  0.133  0.867  0.500- 138 2.41 214 2.41 177 2.41 141 2.41 156 2.41 217 2.41  53 3.16  67 3.16
                             1 3.16   5 3.16  54 3.16  71 3.16
  73  0.933  0.467  0.500- 109 2.41 123 2.41 171 2.41 113 2.41  81 2.41 174 2.41  40 3.16  54 3.16
                            31 3.16  53 3.16  21 3.16  59 3.16
  74  0.067  0.933  0.670- 140 2.41  99 2.41 161 2.41 143 2.41 225 2.41 164 2.41   3 3.16  51 3.16
                            50 3.16  55 3.16  64 3.16  65 3.16
  75  0.067  0.933  0.330- 142 2.41 163 2.41 187 2.41 139 2.41  98 2.41 160 2.41   4 3.16  52 3.16
                            70 3.16  69 3.16  63 3.16  66 3.16
  76  0.667  0.933  0.457-   6 2.41  30 2.41  22 2.41
  77  0.667  0.333  0.543-  45 2.41  40 2.41  31 2.41
  78  0.733  0.267  0.373-  26 2.41  47 2.41  35 2.41
  79  0.733  0.267  0.713-  48 2.41  27 2.41  36 2.41
  80  0.867  0.133  0.457-  49 2.41  22 2.41  21 2.41
  81  0.867  0.333  0.457-  21 2.41  31 2.41  73 2.41
  82  0.933  0.667  0.627-  55 2.41  58 2.41  51 2.41
  83  0.933  0.667  0.287-  69 2.41  68 2.41  52 2.41
  84  0.733  0.267  0.287-  47 2.41  26 2.41  35 2.41
  85  0.733  0.267  0.627-  48 2.41  27 2.41  36 2.41
  86  0.867  0.733  0.457-  54 2.41  46 2.41  67 2.41
  87  0.667  0.333  0.457-  40 2.41  45 2.41  31 2.41
  88  0.933  0.267  0.713-  48 2.41  17 2.41  60 2.41
  89  0.867  0.933  0.543-  67 2.41   6 2.41  49 2.41
  90  0.933  0.067  0.287-  16 2.41  63 2.41  66 2.41
  91  0.933  0.067  0.627-  17 2.41  65 2.41  64 2.41
  92  0.933  0.667  0.713-  55 2.41  58 2.41  51 2.41
  93  0.733  0.067  0.627-  17 2.41  27 2.41   8 2.41
  94  0.733  0.067  0.287-  26 2.41  16 2.41   7 2.41
  95  0.667  0.133  0.457-  22 2.41  23 2.41  31 2.41
  96  0.733  0.067  0.713-  27 2.41  17 2.41   8 2.41
  97  0.733  0.067  0.373-  26 2.41  16 2.41   7 2.41
  98  0.933  0.867  0.373-  63 2.41  69 2.41  75 2.41
  99  0.933  0.867  0.713-  64 2.41  55 2.41  74 2.41
 100  0.867  0.933  0.457-  67 2.41   6 2.41  49 2.41
 101  0.667  0.133  0.543-  22 2.41  23 2.41  31 2.41
 102  0.933  0.267  0.373-  47 2.41  16 2.41  61 2.41
 103  0.933  0.667  0.373-  69 2.41  68 2.41  52 2.41
 104  0.933  0.067  0.713-  17 2.41  65 2.41  64 2.41
 105  0.733  0.867  0.287-   7 2.41  63 2.41  11 2.41
 106  0.733  0.867  0.713-   8 2.41  64 2.41   2 2.41
 107  0.733  0.867  0.373-   7 2.41  11 2.41  63 2.41
 108  0.733  0.867  0.627-   8 2.41  64 2.41   2 2.41
 109  0.867  0.533  0.543-  73 2.41  40 2.41  54 2.41
 110  0.667  0.933  0.543-   6 2.41  30 2.41  22 2.41
 111  0.933  0.467  0.373-  68 2.41  47 2.41  57 2.41
 112  0.933  0.467  0.713-  58 2.41  48 2.41  56 2.41
 113  0.867  0.533  0.457-  73 2.41  54 2.41  40 2.41
 114  0.733  0.667  0.627-  55 2.41  42 2.41   2 2.41
 115  0.733  0.667  0.287-  69 2.41  41 2.41  11 2.41
 116  0.667  0.733  0.457-   6 2.41  34 2.41  46 2.41
 117  0.733  0.667  0.713-  55 2.41  42 2.41   2 2.41
 118  0.733  0.667  0.373-  41 2.41  69 2.41  11 2.41
 119  0.667  0.733  0.543-  34 2.41   6 2.41  46 2.41
 120  0.933  0.467  0.287-  68 2.41  47 2.41  57 2.41
 121  0.933  0.467  0.627-  58 2.41  48 2.41  56 2.41
 122  0.933  0.267  0.627-  48 2.41  17 2.41  60 2.41
 123  0.867  0.333  0.543-  21 2.41  31 2.41  73 2.41
 124  0.933  0.267  0.287-  47 2.41  16 2.41  61 2.41
 125  0.867  0.733  0.543-  54 2.41  46 2.41  67 2.41
 126  0.733  0.467  0.627-  42 2.41  58 2.41  36 2.41
 127  0.733  0.467  0.287-  41 2.41  68 2.41  35 2.41
 128  0.667  0.533  0.457-  40 2.41  39 2.41  46 2.41
 129  0.733  0.467  0.713-  42 2.41  58 2.41  36 2.41
 130  0.733  0.467  0.373-  41 2.41  35 2.41  68 2.41
 131  0.867  0.133  0.543-  49 2.41  22 2.41  21 2.41
 132  0.933  0.067  0.373-  16 2.41  66 2.41  63 2.41
 133  0.667  0.533  0.543-  40 2.41  39 2.41  46 2.41
 134  0.533  0.867  0.627-  28 2.41   8 2.41  32 2.41
 135  0.533  0.467  0.373-  38 2.41  41 2.41  44 2.41
 136  0.467  0.933  0.457-  30 2.41   5 2.41  23 2.41
 137  0.133  0.667  0.627-   9 2.41  51 2.41  56 2.41
 138  0.067  0.933  0.543-  72 2.41  67 2.41   1 2.41
 139  0.133  0.867  0.373-  75 2.41  52 2.41   4 2.41
 140  0.133  0.867  0.713-  74 2.41   3 2.41  51 2.41
 141  0.067  0.933  0.457-  72 2.41  67 2.41   1 2.41
 142  0.133  0.867  0.287-  75 2.41   4 2.41  52 2.41
 143  0.133  0.867  0.627-  74 2.41   3 2.41  51 2.41
 144  0.267  0.133  0.543-  71 2.41   1 2.41  20 2.41
 145  0.133  0.667  0.287-  52 2.41  10 2.41  57 2.41
 146  0.333  0.067  0.373-  70 2.41  24 2.41   4 2.41
 147  0.267  0.133  0.457-  71 2.41  20 2.41   1 2.41
 148  0.333  0.067  0.287-  70 2.41  24 2.41   4 2.41
 149  0.333  0.067  0.627-  25 2.41  50 2.41   3 2.41
 150  0.267  0.333  0.543-  62 2.41  15 2.41  20 2.41
 151  0.333  0.267  0.373-  44 2.41  70 2.41  19 2.41
 152  0.333  0.267  0.713-  43 2.41  50 2.41  18 2.41
 153  0.267  0.333  0.457-  15 2.41  62 2.41  20 2.41
 154  0.333  0.267  0.287-  44 2.41  70 2.41  19 2.41
 155  0.333  0.067  0.713-  50 2.41  25 2.41   3 2.41
 156  0.067  0.733  0.457-  53 2.41  72 2.41  54 2.41
 157  0.133  0.667  0.713-  51 2.41   9 2.41  56 2.41
 158  0.133  0.667  0.373-  52 2.41  10 2.41  57 2.41
 159  0.067  0.133  0.543-   1 2.41  62 2.41  49 2.41
 160  0.133  0.067  0.373-  66 2.41  70 2.41  75 2.41
 161  0.133  0.067  0.713-  65 2.41  50 2.41  74 2.41
 162  0.067  0.133  0.457-   1 2.41  62 2.41  49 2.41
 163  0.133  0.067  0.287-  66 2.41  70 2.41  75 2.41
 164  0.133  0.067  0.627-  65 2.41  50 2.41  74 2.41
 165  0.067  0.333  0.543-  62 2.41  59 2.41  21 2.41
 166  0.133  0.267  0.373-  61 2.41  19 2.41  66 2.41
 167  0.133  0.267  0.713-  60 2.41  18 2.41  65 2.41
 168  0.067  0.333  0.457-  62 2.41  59 2.41  21 2.41
 169  0.133  0.267  0.287-  61 2.41  19 2.41  66 2.41
 170  0.133  0.267  0.627-  18 2.41  60 2.41  65 2.41
 171  0.067  0.533  0.543-  59 2.41  53 2.41  73 2.41
 172  0.133  0.467  0.373-  57 2.41  14 2.41  61 2.41
 173  0.133  0.467  0.713-  56 2.41  13 2.41  60 2.41
 174  0.067  0.533  0.457-  59 2.41  53 2.41  73 2.41
 175  0.133  0.467  0.287-  57 2.41  14 2.41  61 2.41
 176  0.133  0.467  0.627-  56 2.41  13 2.41  60 2.41
 177  0.067  0.733  0.543-  53 2.41  72 2.41  54 2.41
 178  0.333  0.267  0.627-  43 2.41  50 2.41  18 2.41
 179  0.267  0.533  0.543-  15 2.41  59 2.41  12 2.41
 180  0.333  0.467  0.373-  14 2.41  19 2.41  38 2.41
 181  0.333  0.467  0.713-  13 2.41  37 2.41  18 2.41
 182  0.533  0.267  0.713-  43 2.41  36 2.41  25 2.41
 183  0.467  0.333  0.457-  45 2.41  39 2.41  20 2.41
 184  0.533  0.267  0.287-  44 2.41  35 2.41  24 2.41
 185  0.533  0.267  0.627-  36 2.41  43 2.41  25 2.41
 186  0.467  0.533  0.543-  39 2.41  15 2.41  34 2.41
 187  0.933  0.867  0.287-  63 2.41  69 2.41  75 2.41
 188  0.533  0.467  0.713-  37 2.41  42 2.41  43 2.41
 189  0.467  0.533  0.457-  39 2.41  34 2.41  15 2.41
 190  0.533  0.467  0.287-  38 2.41  41 2.41  44 2.41
 191  0.533  0.467  0.627-  37 2.41  42 2.41  43 2.41
 192  0.467  0.733  0.543-  34 2.41  12 2.41  30 2.41
 193  0.533  0.667  0.373-  33 2.41  11 2.41  38 2.41
 194  0.533  0.667  0.713-  32 2.41   2 2.41  37 2.41
 195  0.467  0.733  0.457-  34 2.41  30 2.41  12 2.41
 196  0.533  0.667  0.287-  33 2.41  11 2.41  38 2.41
 197  0.533  0.667  0.627-   2 2.41  32 2.41  37 2.41
 198  0.467  0.933  0.543-  30 2.41   5 2.41  23 2.41
 199  0.533  0.867  0.373-  29 2.41   7 2.41  33 2.41
 200  0.533  0.867  0.713-  28 2.41   8 2.41  32 2.41
 201  0.533  0.267  0.373-  44 2.41  35 2.41  24 2.41
 202  0.533  0.867  0.287-  29 2.41   7 2.41  33 2.41
 203  0.467  0.333  0.543-  45 2.41  20 2.41  39 2.41
 204  0.533  0.067  0.287-  24 2.41  26 2.41  29 2.41
 205  0.267  0.533  0.457-  15 2.41  12 2.41  59 2.41
 206  0.333  0.467  0.287-  14 2.41  38 2.41  19 2.41
 207  0.333  0.467  0.627-  13 2.41  37 2.41  18 2.41
 208  0.267  0.733  0.543-  53 2.41   5 2.41  12 2.41
 209  0.333  0.667  0.373-  14 2.41  33 2.41  10 2.41
 210  0.333  0.667  0.713-  32 2.41  13 2.41   9 2.41
 211  0.267  0.733  0.457-   5 2.41  53 2.41  12 2.41
 212  0.333  0.667  0.287-  33 2.41  14 2.41  10 2.41
 213  0.333  0.667  0.627-  32 2.41  13 2.41   9 2.41
 214  0.267  0.933  0.543-   5 2.41  72 2.41  71 2.41
 215  0.333  0.867  0.373-   4 2.41  10 2.41  29 2.41
 216  0.333  0.867  0.713-   3 2.41  28 2.41   9 2.41
 217  0.267  0.933  0.457-   5 2.41  72 2.41  71 2.41
 218  0.333  0.867  0.287-   4 2.41  29 2.41  10 2.41
 219  0.333  0.867  0.627-   3 2.41  28 2.41   9 2.41
 220  0.467  0.133  0.543-  23 2.41  71 2.41  45 2.41
 221  0.533  0.067  0.373-  24 2.41  26 2.41  29 2.41
 222  0.533  0.067  0.713-  25 2.41  27 2.41  28 2.41
 223  0.467  0.133  0.457-  23 2.41  45 2.41  71 2.41
 224  0.533  0.067  0.627-  25 2.41  27 2.41  28 2.41
 225  0.933  0.867  0.627-  64 2.41  55 2.41  74 2.41
 
  LATTYP: Found a hexagonal cell.
 ALAT       =    15.8227970706
 C/A-ratio  =     2.3015724012
  
  Lattice vectors:
  
 A1 = (   7.9113985353, -13.7029442220,   0.0000000000)
 A2 = (   7.9113985353,  13.7029442220,   0.0000000000)
 A3 = (   0.0000000000,   0.0000000000,  36.4173130480)


Analysis of symmetry for initial positions (statically):
=====================================================================
 Subroutine PRICEL returns following result:
 
  LATTYP: Found a hexagonal cell.
 ALAT       =     3.1645594141
 C/A-ratio  =    11.5078620062
  
  Lattice vectors:
  
 A1 = (   1.5822797071,  -2.7405888444,   0.0000000000)
 A2 = (   1.5822797071,   2.7405888444,   0.0000000000)
 A3 = (   0.0000000000,   0.0000000000,  36.4173130480)
 
  25 primitive cells build up your supercell.
 

 Routine SETGRP: Setting up the symmetry group for a 
 hexagonal supercell.


 Subroutine GETGRP returns: Found  6 space group operations
 (whereof  6 operations were pure point group operations)
 out of a pool of 24 trial point group operations.


The static configuration has the point symmetry C_3v.


Analysis of symmetry for dynamics (positions and initial velocities):
=====================================================================
 Subroutine PRICEL returns following result:
 
  LATTYP: Found a hexagonal cell.
 ALAT       =     3.1645594141
 C/A-ratio  =    11.5078620062
  
  Lattice vectors:
  
 A1 = (   1.5822797071,  -2.7405888444,   0.0000000000)
 A2 = (   1.5822797071,   2.7405888444,   0.0000000000)
 A3 = (   0.0000000000,   0.0000000000,  36.4173130480)
 
  25 primitive cells build up your supercell.
 

 Routine SETGRP: Setting up the symmetry group for a 
 hexagonal supercell.


 Subroutine GETGRP returns: Found  6 space group operations
 (whereof  6 operations were pure point group operations)
 out of a pool of 24 trial point group operations.


The dynamic configuration has the point symmetry C_3v.


Analysis of structural, dynamic, and magnetic symmetry:
=====================================================================
 Subroutine PRICEL returns following result:
 
  LATTYP: Found a hexagonal cell.
 ALAT       =     3.1645594141
 C/A-ratio  =    11.5078620062
  
  Lattice vectors:
  
 A1 = (   1.5822797071,  -2.7405888444,   0.0000000000)
 A2 = (   1.5822797071,   2.7405888444,   0.0000000000)
 A3 = (   0.0000000000,   0.0000000000,  36.4173130480)
 
  25 primitive cells build up your supercell.
 

 Routine SETGRP: Setting up the symmetry group for a 
 hexagonal supercell.


 Subroutine GETGRP returns: Found  6 space group operations
 (whereof  6 operations were pure point group operations)
 out of a pool of 24 trial point group operations.


The overall configuration has the point symmetry C_3v.


 Subroutine INISYM returns: Found  6 space group operations
 (whereof  6 operations are pure point group operations),
 and found    25 'primitive' translations


----------------------------------------------------------------------------------------

                                     Primitive cell                                     

  volume of cell :     315.8385

  direct lattice vectors                    reciprocal lattice vectors
     1.582279707 -2.740588844  0.000000000     0.315999755 -0.182442544  0.000000000
     1.582279707  2.740588844  0.000000000     0.315999755  0.182442544  0.000000000
     0.000000000  0.000000000 36.417313048     0.000000000  0.000000000  0.027459467

  length of vectors
     3.164559414  3.164559414 36.417313048     0.364885087  0.364885087  0.027459467

  position of ions in fractional coordinates (direct lattice)
     0.666666667  0.333333333  0.499919651
     0.333333333  0.666666667  0.669980428
     0.333333333  0.666666667  0.330093415
     0.333333333  0.666666667  0.456836807
     0.333333333  0.666666667  0.542998703
     0.666666667  0.333333333  0.373190999
     0.666666667  0.333333333  0.713032787
     0.666666667  0.333333333  0.626865035
     0.666666667  0.333333333  0.287054067

  ion indices of the primitive-cell ions
   primitive index   ion index
                 1           1
                 2          65
                 3          66
                 4         162
                 5         159
                 6         160
                 7         161
                 8         164
                 9         163

----------------------------------------------------------------------------------------

 
 
 KPOINTS: K-Points                                

Automatic generation of k-mesh.
 Grid dimensions read from file:
 generate k-points for:    9    9    1

 Generating k-lattice:

  Cartesian coordinates                     Fractional coordinates (reciprocal lattice)
     0.007022217 -0.004054279  0.000000000     0.111111111 -0.000000000  0.000000000
     0.007022217  0.004054279  0.000000000    -0.000000000  0.111111111  0.000000000
     0.000000000  0.000000000  0.027459467     0.000000000  0.000000000  1.000000000

  Length of vectors
     0.008108557  0.008108557  0.027459467

  Shift w.r.t. Gamma in fractional coordinates (k-lattice)
     0.000000000  0.000000000  0.000000000

 TETIRR: Found     43 inequivalent tetrahedra from      486
 
 Subroutine IBZKPT returns following result:
 ===========================================
 
 Found     12 irreducible k-points:
 
 Following reciprocal coordinates:
            Coordinates               Weight
  0.000000  0.000000  0.000000      1.000000
  0.111111 -0.000000  0.000000      6.000000
  0.222222  0.000000  0.000000      6.000000
  0.333333 -0.000000  0.000000      6.000000
  0.444444  0.000000  0.000000      6.000000
  0.111111  0.111111  0.000000      6.000000
  0.222222  0.111111  0.000000     12.000000
  0.333333  0.111111  0.000000     12.000000
  0.444444  0.111111  0.000000      6.000000
  0.222222  0.222222  0.000000      6.000000
  0.333333  0.222222  0.000000     12.000000
  0.333333  0.333333  0.000000      2.000000
 
 Following cartesian coordinates:
            Coordinates               Weight
  0.000000  0.000000  0.000000      1.000000
  0.007022 -0.004054  0.000000      6.000000
  0.014044 -0.008109  0.000000      6.000000
  0.021067 -0.012163  0.000000      6.000000
  0.028089 -0.016217  0.000000      6.000000
  0.014044 -0.000000  0.000000      6.000000
  0.021067 -0.004054  0.000000     12.000000
  0.028089 -0.008109  0.000000     12.000000
  0.035111 -0.012163  0.000000      6.000000
  0.028089 -0.000000  0.000000      6.000000
  0.035111 -0.004054  0.000000     12.000000
  0.042133 -0.000000  0.000000      2.000000
 


--------------------------------------------------------------------------------------------------------




 Dimension of arrays:
   k-points           NKPTS =     12   k-points in BZ     NKDIM =     12   number of bands    NBANDS=   1284
   number of dos      NEDOS =   3000   number of ions     NIONS =    225
   non local maximal  LDIM  =      6   non local SUM 2l+1 LMDIM =     18
   total plane-waves  NPLWV = ******
   max r-space proj   IRMAX =   3534   max aug-charges    IRDMAX=  11632
   dimension x,y,z NGX =    96 NGY =   96 NGZ =  224
   dimension x,y,z NGXF=   192 NGYF=  192 NGZF=  448
   support grid    NGXF=   192 NGYF=  192 NGZF=  448
   ions per type =              75 150
   NGX,Y,Z   is equivalent  to a cutoff of  10.09, 10.09, 10.23 a.u.
   NGXF,Y,Z  is equivalent  to a cutoff of  20.17, 20.17, 20.45 a.u.

 SYSTEM =  unknown system                          
 POSCAR =  Mo  S                                   

 Startparameter for this run:
   NWRITE =      2    write-flag & timer
   PREC   = normal    normal or accurate (medium, high low for compatibility)
   ISTART =      0    job   : 0-new  1-cont  2-samecut
   ICHARG =     11    charge: 1-file 2-atom 10-const
   ISPIN  =      2    spin polarized calculation?
   LNONCOLLINEAR =      F non collinear calculations
   LSORBIT =      F    spin-orbit coupling
   INIWAV =      1    electr: 0-lowe 1-rand  2-diag
   LASPH  =      T    aspherical Exc in radial PAW
 Electronic Relaxation 1
   ENCUT  =  600.0 eV  44.10 Ry    6.64 a.u.  31.60 31.60 72.73*2*pi/ulx,y,z
   ENINI  =  600.0     initial cutoff
   ENAUG  =  446.0 eV  augmentation charge cutoff
   NELM   =   2000;   NELMIN=  2; NELMDL=  0     # of ELM steps 
   EDIFF  = 0.1E-05   stopping-criterion for ELM
   LREAL  =      T    real-space projection
   NLSPLINE    = F    spline interpolate recip. space projectors
   LCOMPAT=      F    compatible to vasp.4.4
   GGA_COMPAT  = T    GGA compatible to vasp.4.4-vasp.4.6
   LMAXPAW     = -100 max onsite density
   LMAXMIX     =    2 max onsite mixed and CHGCAR
   VOSKOWN=      0    Vosko Wilk Nusair interpolation
   ROPT   =   -0.00050  -0.00050
 Ionic relaxation
   EDIFFG = 0.1E-04   stopping-criterion for IOM
   NSW    =      0    number of steps for IOM
   NBLOCK =      1;   KBLOCK =      1    inner block; outer block 
   IBRION =     -1    ionic relax: 0-MD 1-quasi-New 2-CG
   NFREE  =      0    steps in history (QN), initial steepest desc. (CG)
   ISIF   =      2    stress and relaxation
   IWAVPR =     10    prediction:  0-non 1-charg 2-wave 3-comb
   ISYM   =      2    0-nonsym 1-usesym 2-fastsym
   LCORR  =      T    Harris-Foulkes like correction to forces

   POTIM  = 0.5000    time-step for ionic-motion
   TEIN   =    0.0    initial temperature
   TEBEG  =    0.0;   TEEND  =   0.0 temperature during run
   SMASS  =  -3.00    Nose mass-parameter (am)
   estimated Nose-frequenzy (Omega)   =  0.10E-29 period in steps = 0.13E+47 mass=  -0.572E-26a.u.
   SCALEE = 1.0000    scale energy and forces
   NPACO  =    256;   APACO  = 10.0  distance and # of slots for P.C.
   PSTRESS=    0.0 pullay stress

  Mass of Ions in am
   POMASS =  95.94 32.07
  Ionic Valenz
   ZVAL   =  14.00  6.00
  Atomic Wigner-Seitz radii
   RWIGS  =  -1.00 -1.00
  virtual crystal weights 
   VCA    =   1.00  1.00
   NELECT =    1950.0000    total number of electrons
   NUPDOWN=      -1.0000    fix difference up-down

 DOS related values:
   EMIN   =  -8.00;   EMAX   =  5.00  energy-range for DOS
   EFERMI =   0.00
   ISMEAR =    -5;   SIGMA  =   0.20  broadening in eV -4-tet -1-fermi 0-gaus

 Electronic relaxation 2 (details)
   IALGO  =     38    algorithm
   LDIAG  =      T    sub-space diagonalisation (order eigenvalues)
   LSUBROT=      F    optimize rotation matrix (better conditioning)
   TURBO    =      0    0=normal 1=particle mesh
   IRESTART =      0    0=no restart 2=restart with 2 vectors
   NREBOOT  =      0    no. of reboots
   NMIN     =      0    reboot dimension
   EREF     =   0.00    reference energy to select bands
   IMIX   =      4    mixing-type and parameters
     AMIX     =   0.40;   BMIX     =  1.00
     AMIX_MAG =   1.60;   BMIX_MAG =  1.00
     AMIN     =   0.10
     WC   =   100.;   INIMIX=   1;  MIXPRE=   1;  MAXMIX= -45

 Intra band minimization:
   WEIMIN = 0.0000     energy-eigenvalue tresh-hold
   EBREAK =  0.19E-09  absolut break condition
   DEPER  =   0.30     relativ break condition  

   TIME   =   0.40     timestep for ELM

  volume/ion in A,a.u.               =      35.09       236.82
  Fermi-wavevector in a.u.,A,eV,Ry     =   1.027113  1.940961 14.353604  1.054960
  Thomas-Fermi vector in A             =   2.161040
 
 Write flags
   LWAVE        =      F    write WAVECAR
   LDOWNSAMPLE  =      F    k-point downsampling of WAVECAR
   LCHARG       =      T    write CHGCAR
   LVTOT        =      F    write LOCPOT, total local potential
   LVHAR        =      F    write LOCPOT, Hartree potential only
   LELF         =      F    write electronic localiz. function (ELF)
   LORBIT       =     11    0 simple, 1 ext, 2 COOP (PROOUT), +10 PAW based schemes


 Dipole corrections
   LMONO  =      F    monopole corrections only (constant potential shift)
   LDIPOL =      T    correct potential (dipole corrections)
   IDIPOL =      3    1-x, 2-y, 3-z, 4-all directions 
   EPSILON=  1.0000000 bulk dielectric constant

 Exchange correlation treatment:
   GGA     =    MK    GGA type
   LEXCH   =    43    internal setting for exchange type
   LIBXC   =     F    Libxc                    
   VOSKOWN =     0    Vosko Wilk Nusair interpolation
   LHFCALC =     F    Hartree Fock is set to
   LHFONE  =     F    Hartree Fock one center treatment
   AEXX    =    0.0000 exact exchange contribution

 vdW DFT:
   LUSE_VDW   =     T    switch on vdW DFT
   Zab_VDW    =-.8491    correlation parameter
   PARAM1     =0.1234
   PARAM2     =1.0000
   PARAM3     =0.0000
   -- rVV10 --
   BPARAM     = 6.3000
   CPARAM     = 0.0093

 Linear response parameters
   LEPSILON=     F    determine dielectric tensor
   LRPA    =     F    only Hartree local field effects (RPA)
   LNABLA  =     F    use nabla operator in PAW spheres
   LVEL    =     F    velocity operator in full k-point grid
   CSHIFT  =0.1000    complex shift for real part using Kramers Kronig
   OMEGAMAX=  -1.0    maximum frequency
   DEG_THRESHOLD= 0.2000000E-02 threshold for treating states as degnerate
   RTIME   =   -0.100 relaxation time in fs
  (WPLASMAI=    0.000 imaginary part of plasma frequency in eV, 0.658/RTIME)
   DFIELD  = 0.0000000 0.0000000 0.0000000 field for delta impulse in time
 
  Optional k-point grid parameters
   LKPOINTS_OPT  =     F    use optional k-point grid
   KPOINTS_OPT_MODE=     1    mode for optional k-point grid
 
 Orbital magnetization related:
   ORBITALMAG=     F  switch on orbital magnetization
   LCHIMAG   =     F  perturbation theory with respect to B field
   DQ        =  0.001000  dq finite difference perturbation B field
   LLRAUG    =     F  two centre corrections for induced B field



--------------------------------------------------------------------------------------------------------


 Static calculation
 charge density and potential remain constant during run
 spin polarized calculation
 Variant of blocked Davidson
 Davidson routine will perform the subspace rotation
 perform sub-space diagonalisation
    after iterative eigenvector-optimisation
 no mixing
 using additional bands          309
 real space projection scheme for non local part
 use partial core corrections
 calculate Harris-corrections to forces 
   (improved forces if not selfconsistent)
 use gradient corrections 
 WARNING: stress and forces are not correct
  (second derivative of E(xc) not defined)
 use of overlap-Matrix (Vanderbilt PP)
 Fermi weights with tetrahedron method with Bloechl corrections


--------------------------------------------------------------------------------------------------------


  energy-cutoff  :      600.00
  volume of cell :     7895.96
      direct lattice vectors                 reciprocal lattice vectors
     7.911398535-13.702944222  0.000000000     0.063199951 -0.036488509  0.000000000
     7.911398535 13.702944222  0.000000000     0.063199951  0.036488509  0.000000000
     0.000000000  0.000000000 36.417313048     0.000000000  0.000000000  0.027459467

  length of vectors
    15.822797071 15.822797071 36.417313048     0.072977017  0.072977017  0.027459467


 
 k-points in units of 2pi/SCALE and weight: K-Points                                
   0.00000000  0.00000000  0.00000000       0.012
   0.00702222 -0.00405428  0.00000000       0.074
   0.01404443 -0.00810856  0.00000000       0.074
   0.02106665 -0.01216284  0.00000000       0.074
   0.02808887 -0.01621711  0.00000000       0.074
   0.01404443 -0.00000000  0.00000000       0.074
   0.02106665 -0.00405428  0.00000000       0.148
   0.02808887 -0.00810856  0.00000000       0.148
   0.03511108 -0.01216284  0.00000000       0.074
   0.02808887 -0.00000000  0.00000000       0.074
   0.03511108 -0.00405428  0.00000000       0.148
   0.04213330 -0.00000000  0.00000000       0.025
 
 k-points in reciprocal lattice and weights: K-Points                                
   0.00000000  0.00000000  0.00000000       0.012
   0.11111111 -0.00000000  0.00000000       0.074
   0.22222222  0.00000000  0.00000000       0.074
   0.33333333 -0.00000000  0.00000000       0.074
   0.44444444  0.00000000  0.00000000       0.074
   0.11111111  0.11111111  0.00000000       0.074
   0.22222222  0.11111111  0.00000000       0.148
   0.33333333  0.11111111  0.00000000       0.148
   0.44444444  0.11111111  0.00000000       0.074
   0.22222222  0.22222222  0.00000000       0.074
   0.33333333  0.22222222  0.00000000       0.148
   0.33333333  0.33333333  0.00000000       0.025
 
 position of ions in fractional coordinates (direct lattice) 
   0.13333333  0.06666667  0.49991965
   0.66666667  0.73333333  0.66998043
   0.26666667  0.93333333  0.66998043
   0.26666667  0.93333333  0.33009342
   0.33333333  0.86666667  0.49991965
   0.73333333  0.86666667  0.49991965
   0.66666667  0.93333333  0.33009342
   0.66666667  0.93333333  0.66998043
   0.26666667  0.73333333  0.66998043
   0.26666667  0.73333333  0.33009342
   0.66666667  0.73333333  0.33009342
   0.33333333  0.66666667  0.49991965
   0.26666667  0.53333333  0.66998043
   0.26666667  0.53333333  0.33009342
   0.33333333  0.46666667  0.49991965
   0.86666667  0.13333333  0.33009342
   0.86666667  0.13333333  0.66998043
   0.26666667  0.33333333  0.66998043
   0.26666667  0.33333333  0.33009342
   0.33333333  0.26666667  0.49991965
   0.93333333  0.26666667  0.49991965
   0.73333333  0.06666667  0.49991965
   0.53333333  0.06666667  0.49991965
   0.46666667  0.13333333  0.33009342
   0.46666667  0.13333333  0.66998043
   0.66666667  0.13333333  0.33009342
   0.66666667  0.13333333  0.66998043
   0.46666667  0.93333333  0.66998043
   0.46666667  0.93333333  0.33009342
   0.53333333  0.86666667  0.49991965
   0.73333333  0.26666667  0.49991965
   0.46666667  0.73333333  0.66998043
   0.46666667  0.73333333  0.33009342
   0.53333333  0.66666667  0.49991965
   0.66666667  0.33333333  0.33009342
   0.66666667  0.33333333  0.66998043
   0.46666667  0.53333333  0.66998043
   0.46666667  0.53333333  0.33009342
   0.53333333  0.46666667  0.49991965
   0.73333333  0.46666667  0.49991965
   0.66666667  0.53333333  0.33009342
   0.66666667  0.53333333  0.66998043
   0.46666667  0.33333333  0.66998043
   0.46666667  0.33333333  0.33009342
   0.53333333  0.26666667  0.49991965
   0.73333333  0.66666667  0.49991965
   0.86666667  0.33333333  0.33009342
   0.86666667  0.33333333  0.66998043
   0.93333333  0.06666667  0.49991965
   0.26666667  0.13333333  0.66998043
   0.06666667  0.73333333  0.66998043
   0.06666667  0.73333333  0.33009342
   0.13333333  0.66666667  0.49991965
   0.93333333  0.66666667  0.49991965
   0.86666667  0.73333333  0.66998043
   0.06666667  0.53333333  0.66998043
   0.06666667  0.53333333  0.33009342
   0.86666667  0.53333333  0.66998043
   0.13333333  0.46666667  0.49991965
   0.06666667  0.33333333  0.66998043
   0.06666667  0.33333333  0.33009342
   0.13333333  0.26666667  0.49991965
   0.86666667  0.93333333  0.33009342
   0.86666667  0.93333333  0.66998043
   0.06666667  0.13333333  0.66998043
   0.06666667  0.13333333  0.33009342
   0.93333333  0.86666667  0.49991965
   0.86666667  0.53333333  0.33009342
   0.86666667  0.73333333  0.33009342
   0.26666667  0.13333333  0.33009342
   0.33333333  0.06666667  0.49991965
   0.13333333  0.86666667  0.49991965
   0.93333333  0.46666667  0.49991965
   0.06666667  0.93333333  0.66998043
   0.06666667  0.93333333  0.33009342
   0.66666667  0.93333333  0.45683681
   0.66666667  0.33333333  0.54299870
   0.73333333  0.26666667  0.37319100
   0.73333333  0.26666667  0.71303279
   0.86666667  0.13333333  0.45683681
   0.86666667  0.33333333  0.45683681
   0.93333333  0.66666667  0.62686503
   0.93333333  0.66666667  0.28705407
   0.73333333  0.26666667  0.28705407
   0.73333333  0.26666667  0.62686503
   0.86666667  0.73333333  0.45683681
   0.66666667  0.33333333  0.45683681
   0.93333333  0.26666667  0.71303279
   0.86666667  0.93333333  0.54299870
   0.93333333  0.06666667  0.28705407
   0.93333333  0.06666667  0.62686503
   0.93333333  0.66666667  0.71303279
   0.73333333  0.06666667  0.62686503
   0.73333333  0.06666667  0.28705407
   0.66666667  0.13333333  0.45683681
   0.73333333  0.06666667  0.71303279
   0.73333333  0.06666667  0.37319100
   0.93333333  0.86666667  0.37319100
   0.93333333  0.86666667  0.71303279
   0.86666667  0.93333333  0.45683681
   0.66666667  0.13333333  0.54299870
   0.93333333  0.26666667  0.37319100
   0.93333333  0.66666667  0.37319100
   0.93333333  0.06666667  0.71303279
   0.73333333  0.86666667  0.28705407
   0.73333333  0.86666667  0.71303279
   0.73333333  0.86666667  0.37319100
   0.73333333  0.86666667  0.62686503
   0.86666667  0.53333333  0.54299870
   0.66666667  0.93333333  0.54299870
   0.93333333  0.46666667  0.37319100
   0.93333333  0.46666667  0.71303279
   0.86666667  0.53333333  0.45683681
   0.73333333  0.66666667  0.62686503
   0.73333333  0.66666667  0.28705407
   0.66666667  0.73333333  0.45683681
   0.73333333  0.66666667  0.71303279
   0.73333333  0.66666667  0.37319100
   0.66666667  0.73333333  0.54299870
   0.93333333  0.46666667  0.28705407
   0.93333333  0.46666667  0.62686503
   0.93333333  0.26666667  0.62686503
   0.86666667  0.33333333  0.54299870
   0.93333333  0.26666667  0.28705407
   0.86666667  0.73333333  0.54299870
   0.73333333  0.46666667  0.62686503
   0.73333333  0.46666667  0.28705407
   0.66666667  0.53333333  0.45683681
   0.73333333  0.46666667  0.71303279
   0.73333333  0.46666667  0.37319100
   0.86666667  0.13333333  0.54299870
   0.93333333  0.06666667  0.37319100
   0.66666667  0.53333333  0.54299870
   0.53333333  0.86666667  0.62686503
   0.53333333  0.46666667  0.37319100
   0.46666667  0.93333333  0.45683681
   0.13333333  0.66666667  0.62686503
   0.06666667  0.93333333  0.54299870
   0.13333333  0.86666667  0.37319100
   0.13333333  0.86666667  0.71303279
   0.06666667  0.93333333  0.45683681
   0.13333333  0.86666667  0.28705407
   0.13333333  0.86666667  0.62686503
   0.26666667  0.13333333  0.54299870
   0.13333333  0.66666667  0.28705407
   0.33333333  0.06666667  0.37319100
   0.26666667  0.13333333  0.45683681
   0.33333333  0.06666667  0.28705407
   0.33333333  0.06666667  0.62686503
   0.26666667  0.33333333  0.54299870
   0.33333333  0.26666667  0.37319100
   0.33333333  0.26666667  0.71303279
   0.26666667  0.33333333  0.45683681
   0.33333333  0.26666667  0.28705407
   0.33333333  0.06666667  0.71303279
   0.06666667  0.73333333  0.45683681
   0.13333333  0.66666667  0.71303279
   0.13333333  0.66666667  0.37319100
   0.06666667  0.13333333  0.54299870
   0.13333333  0.06666667  0.37319100
   0.13333333  0.06666667  0.71303279
   0.06666667  0.13333333  0.45683681
   0.13333333  0.06666667  0.28705407
   0.13333333  0.06666667  0.62686503
   0.06666667  0.33333333  0.54299870
   0.13333333  0.26666667  0.37319100
   0.13333333  0.26666667  0.71303279
   0.06666667  0.33333333  0.45683681
   0.13333333  0.26666667  0.28705407
   0.13333333  0.26666667  0.62686503
   0.06666667  0.53333333  0.54299870
   0.13333333  0.46666667  0.37319100
   0.13333333  0.46666667  0.71303279
   0.06666667  0.53333333  0.45683681
   0.13333333  0.46666667  0.28705407
   0.13333333  0.46666667  0.62686503
   0.06666667  0.73333333  0.54299870
   0.33333333  0.26666667  0.62686503
   0.26666667  0.53333333  0.54299870
   0.33333333  0.46666667  0.37319100
   0.33333333  0.46666667  0.71303279
   0.53333333  0.26666667  0.71303279
   0.46666667  0.33333333  0.45683681
   0.53333333  0.26666667  0.28705407
   0.53333333  0.26666667  0.62686503
   0.46666667  0.53333333  0.54299870
   0.93333333  0.86666667  0.28705407
   0.53333333  0.46666667  0.71303279
   0.46666667  0.53333333  0.45683681
   0.53333333  0.46666667  0.28705407
   0.53333333  0.46666667  0.62686503
   0.46666667  0.73333333  0.54299870
   0.53333333  0.66666667  0.37319100
   0.53333333  0.66666667  0.71303279
   0.46666667  0.73333333  0.45683681
   0.53333333  0.66666667  0.28705407
   0.53333333  0.66666667  0.62686503
   0.46666667  0.93333333  0.54299870
   0.53333333  0.86666667  0.37319100
   0.53333333  0.86666667  0.71303279
   0.53333333  0.26666667  0.37319100
   0.53333333  0.86666667  0.28705407
   0.46666667  0.33333333  0.54299870
   0.53333333  0.06666667  0.28705407
   0.26666667  0.53333333  0.45683681
   0.33333333  0.46666667  0.28705407
   0.33333333  0.46666667  0.62686503
   0.26666667  0.73333333  0.54299870
   0.33333333  0.66666667  0.37319100
   0.33333333  0.66666667  0.71303279
   0.26666667  0.73333333  0.45683681
   0.33333333  0.66666667  0.28705407
   0.33333333  0.66666667  0.62686503
   0.26666667  0.93333333  0.54299870
   0.33333333  0.86666667  0.37319100
   0.33333333  0.86666667  0.71303279
   0.26666667  0.93333333  0.45683681
   0.33333333  0.86666667  0.28705407
   0.33333333  0.86666667  0.62686503
   0.46666667  0.13333333  0.54299870
   0.53333333  0.06666667  0.37319100
   0.53333333  0.06666667  0.71303279
   0.46666667  0.13333333  0.45683681
   0.53333333  0.06666667  0.62686503
   0.93333333  0.86666667  0.62686503
 
 position of ions in cartesian coordinates  (Angst):
   1.58227971 -0.91352961 18.20573045
  11.07595795  0.91352961 24.39888698
   9.49367824  9.13529615 24.39888698
   9.49367824  9.13529615 12.02111524
   9.49367824  7.30823692 18.20573045
  12.65823766  1.82705923 18.20573045
  12.65823766  3.65411846 12.02111524
  12.65823766  3.65411846 24.39888698
   7.91139854  6.39470730 24.39888698
   7.91139854  6.39470730 12.02111524
  11.07595795  0.91352961 12.02111524
   7.91139854  4.56764807 18.20573045
   6.32911883  3.65411846 24.39888698
   6.32911883  3.65411846 12.02111524
   6.32911883  1.82705923 18.20573045
   7.91139854-10.04882576 12.02111524
   7.91139854-10.04882576 24.39888698
   4.74683912  0.91352961 24.39888698
   4.74683912  0.91352961 12.02111524
   4.74683912 -0.91352961 18.20573045
   9.49367824 -9.13529615 18.20573045
   6.32911883 -9.13529615 18.20573045
   4.74683912 -6.39470730 18.20573045
   4.74683912 -4.56764807 12.02111524
   4.74683912 -4.56764807 24.39888698
   6.32911883 -7.30823692 12.02111524
   6.32911883 -7.30823692 24.39888698
  11.07595795  6.39470730 24.39888698
  11.07595795  6.39470730 12.02111524
  11.07595795  4.56764807 18.20573045
   7.91139854 -6.39470730 18.20573045
   9.49367824  3.65411846 24.39888698
   9.49367824  3.65411846 12.02111524
   9.49367824  1.82705923 18.20573045
   7.91139854 -4.56764807 12.02111524
   7.91139854 -4.56764807 24.39888698
   7.91139854  0.91352961 24.39888698
   7.91139854  0.91352961 12.02111524
   7.91139854 -0.91352961 18.20573045
   9.49367824 -3.65411846 18.20573045
   9.49367824 -1.82705923 12.02111524
   9.49367824 -1.82705923 24.39888698
   6.32911883 -1.82705923 24.39888698
   6.32911883 -1.82705923 12.02111524
   6.32911883 -3.65411846 18.20573045
  11.07595795 -0.91352961 18.20573045
   9.49367824 -7.30823692 12.02111524
   9.49367824 -7.30823692 24.39888698
   7.91139854-11.87588499 18.20573045
   3.16455941 -1.82705923 24.39888698
   6.32911883  9.13529615 24.39888698
   6.32911883  9.13529615 12.02111524
   6.32911883  7.30823692 18.20573045
  12.65823766 -3.65411846 18.20573045
  12.65823766 -1.82705923 24.39888698
   4.74683912  6.39470730 24.39888698
   4.74683912  6.39470730 12.02111524
  11.07595795 -4.56764807 24.39888698
   4.74683912  4.56764807 18.20573045
   3.16455941  3.65411846 24.39888698
   3.16455941  3.65411846 12.02111524
   3.16455941  1.82705923 18.20573045
  14.24051736  0.91352961 12.02111524
  14.24051736  0.91352961 24.39888698
   1.58227971  0.91352961 24.39888698
   1.58227971  0.91352961 12.02111524
  14.24051736 -0.91352961 18.20573045
  11.07595795 -4.56764807 12.02111524
  12.65823766 -1.82705923 12.02111524
   3.16455941 -1.82705923 12.02111524
   3.16455941 -3.65411846 18.20573045
   7.91139854 10.04882576 18.20573045
  11.07595795 -6.39470730 18.20573045
   7.91139854 11.87588499 24.39888698
   7.91139854 11.87588499 12.02111524
  12.65823766  3.65411846 16.63676902
   7.91139854 -4.56764807 19.77455374
   7.91139854 -6.39470730 13.59061342
   7.91139854 -6.39470730 25.96673822
   7.91139854-10.04882576 16.63676902
   9.49367824 -7.30823692 16.63676902
  12.65823766 -3.65411846 22.82874021
  12.65823766 -3.65411846 10.45373783
   7.91139854 -6.39470730 10.45373783
   7.91139854 -6.39470730 22.82874021
  12.65823766 -1.82705923 16.63676902
   7.91139854 -4.56764807 16.63676902
   9.49367824 -9.13529615 25.96673822
  14.24051736  0.91352961 19.77455374
   7.91139854-11.87588499 10.45373783
   7.91139854-11.87588499 22.82874021
  12.65823766 -3.65411846 25.96673822
   6.32911883 -9.13529615 22.82874021
   6.32911883 -9.13529615 10.45373783
   6.32911883 -7.30823692 16.63676902
   6.32911883 -9.13529615 25.96673822
   6.32911883 -9.13529615 13.59061342
  14.24051736 -0.91352961 13.59061342
  14.24051736 -0.91352961 25.96673822
  14.24051736  0.91352961 16.63676902
   6.32911883 -7.30823692 19.77455374
   9.49367824 -9.13529615 13.59061342
  12.65823766 -3.65411846 13.59061342
   7.91139854-11.87588499 25.96673822
  12.65823766  1.82705923 10.45373783
  12.65823766  1.82705923 25.96673822
  12.65823766  1.82705923 13.59061342
  12.65823766  1.82705923 22.82874021
  11.07595795 -4.56764807 19.77455374
  12.65823766  3.65411846 19.77455374
  11.07595795 -6.39470730 13.59061342
  11.07595795 -6.39470730 25.96673822
  11.07595795 -4.56764807 16.63676902
  11.07595795 -0.91352961 22.82874021
  11.07595795 -0.91352961 10.45373783
  11.07595795  0.91352961 16.63676902
  11.07595795 -0.91352961 25.96673822
  11.07595795 -0.91352961 13.59061342
  11.07595795  0.91352961 19.77455374
  11.07595795 -6.39470730 10.45373783
  11.07595795 -6.39470730 22.82874021
   9.49367824 -9.13529615 22.82874021
   9.49367824 -7.30823692 19.77455374
   9.49367824 -9.13529615 10.45373783
  12.65823766 -1.82705923 19.77455374
   9.49367824 -3.65411846 22.82874021
   9.49367824 -3.65411846 10.45373783
   9.49367824 -1.82705923 16.63676902
   9.49367824 -3.65411846 25.96673822
   9.49367824 -3.65411846 13.59061342
   7.91139854-10.04882576 19.77455374
   7.91139854-11.87588499 13.59061342
   9.49367824 -1.82705923 19.77455374
  11.07595795  4.56764807 22.82874021
   7.91139854 -0.91352961 13.59061342
  11.07595795  6.39470730 16.63676902
   6.32911883  7.30823692 22.82874021
   7.91139854 11.87588499 19.77455374
   7.91139854 10.04882576 13.59061342
   7.91139854 10.04882576 25.96673822
   7.91139854 11.87588499 16.63676902
   7.91139854 10.04882576 10.45373783
   7.91139854 10.04882576 22.82874021
   3.16455941 -1.82705923 19.77455374
   6.32911883  7.30823692 10.45373783
   3.16455941 -3.65411846 13.59061342
   3.16455941 -1.82705923 16.63676902
   3.16455941 -3.65411846 10.45373783
   3.16455941 -3.65411846 22.82874021
   4.74683912  0.91352961 19.77455374
   4.74683912 -0.91352961 13.59061342
   4.74683912 -0.91352961 25.96673822
   4.74683912  0.91352961 16.63676902
   4.74683912 -0.91352961 10.45373783
   3.16455941 -3.65411846 25.96673822
   6.32911883  9.13529615 16.63676902
   6.32911883  7.30823692 25.96673822
   6.32911883  7.30823692 13.59061342
   1.58227971  0.91352961 19.77455374
   1.58227971 -0.91352961 13.59061342
   1.58227971 -0.91352961 25.96673822
   1.58227971  0.91352961 16.63676902
   1.58227971 -0.91352961 10.45373783
   1.58227971 -0.91352961 22.82874021
   3.16455941  3.65411846 19.77455374
   3.16455941  1.82705923 13.59061342
   3.16455941  1.82705923 25.96673822
   3.16455941  3.65411846 16.63676902
   3.16455941  1.82705923 10.45373783
   3.16455941  1.82705923 22.82874021
   4.74683912  6.39470730 19.77455374
   4.74683912  4.56764807 13.59061342
   4.74683912  4.56764807 25.96673822
   4.74683912  6.39470730 16.63676902
   4.74683912  4.56764807 10.45373783
   4.74683912  4.56764807 22.82874021
   6.32911883  9.13529615 19.77455374
   4.74683912 -0.91352961 22.82874021
   6.32911883  3.65411846 19.77455374
   6.32911883  1.82705923 13.59061342
   6.32911883  1.82705923 25.96673822
   6.32911883 -3.65411846 25.96673822
   6.32911883 -1.82705923 16.63676902
   6.32911883 -3.65411846 10.45373783
   6.32911883 -3.65411846 22.82874021
   7.91139854  0.91352961 19.77455374
  14.24051736 -0.91352961 10.45373783
   7.91139854 -0.91352961 25.96673822
   7.91139854  0.91352961 16.63676902
   7.91139854 -0.91352961 10.45373783
   7.91139854 -0.91352961 22.82874021
   9.49367824  3.65411846 19.77455374
   9.49367824  1.82705923 13.59061342
   9.49367824  1.82705923 25.96673822
   9.49367824  3.65411846 16.63676902
   9.49367824  1.82705923 10.45373783
   9.49367824  1.82705923 22.82874021
  11.07595795  6.39470730 19.77455374
  11.07595795  4.56764807 13.59061342
  11.07595795  4.56764807 25.96673822
   6.32911883 -3.65411846 13.59061342
  11.07595795  4.56764807 10.45373783
   6.32911883 -1.82705923 19.77455374
   4.74683912 -6.39470730 10.45373783
   6.32911883  3.65411846 16.63676902
   6.32911883  1.82705923 10.45373783
   6.32911883  1.82705923 22.82874021
   7.91139854  6.39470730 19.77455374
   7.91139854  4.56764807 13.59061342
   7.91139854  4.56764807 25.96673822
   7.91139854  6.39470730 16.63676902
   7.91139854  4.56764807 10.45373783
   7.91139854  4.56764807 22.82874021
   9.49367824  9.13529615 19.77455374
   9.49367824  7.30823692 13.59061342
   9.49367824  7.30823692 25.96673822
   9.49367824  9.13529615 16.63676902
   9.49367824  7.30823692 10.45373783
   9.49367824  7.30823692 22.82874021
   4.74683912 -4.56764807 19.77455374
   4.74683912 -6.39470730 13.59061342
   4.74683912 -6.39470730 25.96673822
   4.74683912 -4.56764807 16.63676902
   4.74683912 -6.39470730 22.82874021
  14.24051736 -0.91352961 22.82874021
 


--------------------------------------------------------------------------------------------------------


 k-point   1 :   0.0000 0.0000 0.0000  plane waves:  263629
 k-point   2 :   0.1111-0.0000 0.0000  plane waves:  263591
 k-point   3 :   0.2222 0.0000 0.0000  plane waves:  263557
 k-point   4 :   0.3333-0.0000 0.0000  plane waves:  263559
 k-point   5 :   0.4444 0.0000 0.0000  plane waves:  263526
 k-point   6 :   0.1111 0.1111 0.0000  plane waves:  263583
 k-point   7 :   0.2222 0.1111 0.0000  plane waves:  263540
 k-point   8 :   0.3333 0.1111 0.0000  plane waves:  263475
 k-point   9 :   0.4444 0.1111 0.0000  plane waves:  263452
 k-point  10 :   0.2222 0.2222 0.0000  plane waves:  263542
 k-point  11 :   0.3333 0.2222 0.0000  plane waves:  263485
 k-point  12 :   0.3333 0.3333 0.0000  plane waves:  263442

 maximum and minimum number of plane-waves per node :     16534    16396

 maximum number of plane-waves:    263629
 maximum index in each direction: 
   IXMAX=   31   IYMAX=   31   IZMAX=   72
   IXMIN=  -32   IYMIN=  -31   IZMIN=  -72


 real space projection operators:
  total allocation   :      47499.42 KBytes
  max/ min on nodes  :       2982.94       2958.91


 parallel 3D FFT for wavefunctions:
    minimum data exchange during FFTs selected (reduces bandwidth)
 parallel 3D FFT for charge:
    minimum data exchange during FFTs selected (reduces bandwidth)


 total amount of memory used by VASP MPI-rank0  2143454. kBytes
=======================================================================

   base      :      30000. kBytes
   nonlr-proj:      17123. kBytes
   fftplans  :      12709. kBytes
   grid      :      31057. kBytes
   one-center:        466. kBytes
   wavefun   :    2052099. kBytes
 
     INWAV:  cpu time      0.0001: real time      0.0001
 initial charge density was supplied:
 number of electron    1950.0000183 magnetization       0.0000001
 keeping initial charge density in first step


--------------------------------------------------------------------------------------------------------


 Maximum index for non-local projection operator          249
 Maximum index for augmentation-charges          555 (set IRDMAX)


--------------------------------------------------------------------------------------------------------


 First call to EWALD:  gamma=   0.089
 Maximum number of real-space cells 4x 4x 2
 Maximum number of reciprocal cells 2x 2x 5

    FEWALD:  cpu time      0.2904: real time      0.2903


--------------------------------------- Iteration      1(   1)  ---------------------------------------


vdW kernel read from vdw_kernel.bindat
  0.0000  0.2424  0.5071  0.7962  1.1119  1.4567  1.8333  2.2446  2.6937  3.1842
  3.7199  4.3049  4.9438  5.6415  6.4036  7.2358  8.1446  9.1372 10.2212 11.4050
 12.6979 14.1099 15.6519 17.3360 19.1751 21.1837 23.3773 25.7729 28.3892 31.2465
 34.3669 37.7748 41.4965 45.5611 50.0000
 
    POTLOK:  cpu time     11.7110: real time     11.7611
    SETDIJ:  cpu time      3.0272: real time      3.0267
     EDDAV:  cpu time    382.0267: real time    381.9344
 BZINTS: Fermi energy:   14.010944; 1950.000000 electrons
         Band energy:-0.111540E+05;  BLOECHL correction:   -0.004900
       DOS:  cpu time      4.4003: real time      4.3991
    --------------------------------------------
      LOOP:  cpu time    401.1653: real time    401.1214

 eigenvalue-minimisations  : 73856
 total energy-change (2. order) : 0.1836049E+05  (-0.1100312E+06)
 number of electron    1950.0000183 magnetization       0.0000001
 augmentation part     1950.0000183 magnetization       0.0000001

 DIPCOR: dipole corrections for dipol
 direction  3 min pos     1,
 dipolmoment           0.000000      0.000000      0.003504 electrons x Angstroem
 Tr[quadrupol]    -82183.778413

 energy correction for charged system         0.000000 eV
 dipol+quadrupol energy correction           -0.000000 eV
 added-field ion interaction          0.000016 eV  (added to PSCEN)


 Free energy of the ion-electron system (eV)
  ---------------------------------------------------
  alpha Z        PSCENC =      3370.07318894
  Ewald energy   TEWEN  =   1121518.34844846
  -Hartree energ DENC   =  -1285502.33359608
  -exchange      EXHF   =         0.00000000
  -V(xc)+E(xc)   XCENC  =      6817.35482795
  PAW double counting   =    221024.09655776  -219350.42811590
  entropy T*S    EENTRO =         0.00000000
  eigenvalues    EBANDS =    -11154.01727388
  atomic energy  EATOM  =    181637.39341292
  Solvation  Ediel_sol  =         0.00000000
  ---------------------------------------------------
  free energy    TOTEN  =     18360.48745016 eV

  energy without entropy =    18360.48745016  energy(sigma->0) =    18360.48745016


--------------------------------------------------------------------------------------------------------




--------------------------------------- Iteration      1(   2)  ---------------------------------------


     EDDAV:  cpu time    380.7645: real time    380.6269
 WARNING: Fermi level nearly degenerate with energies of tetrahedron. This may
     result in numerical instabilities because the density changes by tiny
     changes of the Fermi energy. If the calculation converges, the total
     energy will still be reliable. If you notice convergence issues, you can
     try to
     *) Use a Gamma centered k-point grid
     *) Use tetrahedron method without corrections ISMEAR = -4
     *) Don't use tetrahedron method
        ISMEAR = 0 for semiconductors, 1 or 2 for metals

 BZINTS: Fermi energy:    2.585983; 1950.000000 electrons
         Band energy:-0.292589E+05;  BLOECHL correction:   -0.001321
       DOS:  cpu time      4.2555: real time      4.2544
    --------------------------------------------
      LOOP:  cpu time    385.0200: real time    384.8813

 eigenvalue-minimisations  : 75496
 total energy-change (2. order) :-0.1810486E+05  (-0.1744065E+05)
 number of electron    1950.0000183 magnetization       0.0000001
 augmentation part     1950.0000183 magnetization       0.0000001

 DIPCOR: dipole corrections for dipol
 direction  3 min pos     1,
 dipolmoment           0.000000      0.000000      0.003504 electrons x Angstroem
 Tr[quadrupol]    -82183.778413

 energy correction for charged system         0.000000 eV
 dipol+quadrupol energy correction           -0.000000 eV
 added-field ion interaction          0.000016 eV  (added to PSCEN)


 Free energy of the ion-electron system (eV)
  ---------------------------------------------------
  alpha Z        PSCENC =      3370.07318894
  Ewald energy   TEWEN  =   1121518.34844846
  -Hartree energ DENC   =  -1285502.33359608
  -exchange      EXHF   =         0.00000000
  -V(xc)+E(xc)   XCENC  =      6817.35482795
  PAW double counting   =    221024.09655776  -219350.42811590
  entropy T*S    EENTRO =         0.00000000
  eigenvalues    EBANDS =    -29258.88041410
  atomic energy  EATOM  =    181637.39341292
  Solvation  Ediel_sol  =         0.00000000
  ---------------------------------------------------
  free energy    TOTEN  =       255.62430994 eV

  energy without entropy =      255.62430994  energy(sigma->0) =      255.62430994


--------------------------------------------------------------------------------------------------------




--------------------------------------- Iteration      1(   3)  ---------------------------------------


     EDDAV:  cpu time    352.6152: real time    352.4853
 BZINTS: Fermi energy:    1.037484; 1950.000000 electrons
         Band energy:-0.306716E+05;  BLOECHL correction:   -0.000000
       DOS:  cpu time      4.0142: real time      4.0132
    --------------------------------------------
      LOOP:  cpu time    356.6294: real time    356.4985

 eigenvalue-minimisations  : 70616
 total energy-change (2. order) :-0.1412745E+04  (-0.1368454E+04)
 number of electron    1950.0000183 magnetization       0.0000001
 augmentation part     1950.0000183 magnetization       0.0000001

 DIPCOR: dipole corrections for dipol
 direction  3 min pos     1,
 dipolmoment           0.000000      0.000000      0.003504 electrons x Angstroem
 Tr[quadrupol]    -82183.778413

 energy correction for charged system         0.000000 eV
 dipol+quadrupol energy correction           -0.000000 eV
 added-field ion interaction          0.000016 eV  (added to PSCEN)


 Free energy of the ion-electron system (eV)
  ---------------------------------------------------
  alpha Z        PSCENC =      3370.07318894
  Ewald energy   TEWEN  =   1121518.34844846
  -Hartree energ DENC   =  -1285502.33359608
  -exchange      EXHF   =         0.00000000
  -V(xc)+E(xc)   XCENC  =      6817.35482795
  PAW double counting   =    221024.09655776  -219350.42811590
  entropy T*S    EENTRO =         0.00000000
  eigenvalues    EBANDS =    -30671.62543879
[...]
  224          setdij_                               0.325101                          6   4
  225            m_sumb_d                              0.024055                        6   5
  226          m_sumb_d                              0.000130                          1   4
  227        setdij_                               1.080082                           20   3
  228          m_sumb_d                              0.079181                         20   4
  229        set_dd_magatom                        0.000007                            1   3
  230        set_dd_paw                            2.957393                            1   3
  231          set_rsgf_all                          0.000022                          1   4
  232          m_sumb_d                              2.956364                          8   4
  233        strkin                                0.135115                            1   3
  234          m_sumb_d                              0.007417                          1   4
  235        strelo                                0.022791                            1   3
  236          m_sumb_d                              0.000691                          2   4
  237        strnlr                               79.795798                            1   3
  238          rspher_all                            0.302274                          9   4
  239          phaser                                0.177571                         18   4
  240          rpro_isp                             78.447253                         18   4
  241            fftwav_mpi                           58.361089                    11556   5
  242              fft3d_mpi                            52.123626                  11556   6
  243                fftbas_mpi                           52.074903                11556   7
  244                  fftbas_plan_mpi                      52.034307              11556   8
  245                    dfftw_execute                        25.167673            34668   9
  246                    map_forward                          20.178268            23112   9
  247                      map_gather                            4.742018          11556  10
  248                      m_alltoallv_z                         5.405328          11556  10
  249                      map_scatter                           5.938576          11556  10
  250            rpromu                               19.999362                     2916   5
  251              crrexp_mul_wave                       6.684538                2600100   6
  252              rpromu_gemm                           6.969582                 656100   6
  253              m_sumb_d                              1.393640                  11556   6
  254          m_sumb_d                              0.653750                         10   4
  255        m_sumb_d                              0.003688                            7   3
  256        fft3d_mpi                             1.098974                           82   3
  257          fftbrc_mpi                            1.036787                         82   4
  258            fftbas_plan_mpi                       1.036543                       82   5
  259              dfftw_execute                         0.307168                    246   6
  260              map_forward                           0.373559                     80   6
  261                map_gather                            0.086090                   40   7
  262                m_alltoallv_z                         0.249450                   40   7
  263                map_scatter                           0.037181                   40   7
  264              map_backward                          0.302696                     84   6
  265                map_gather                            0.034753                   42   7
  266                m_alltoallv_z                         0.157643                   42   7
  267                map_scatter                           0.109415                   42   7
  268        forhar                                2.340967                            2   3
  269          m_sumb_d                              0.009264                          2   4
  270        strehar                               0.017765                            1   3
  271          m_sumb_d                              0.000662                          1   4
  272        chggra                                0.057286                            1   3
  273          fft3d_mpi                             0.035182                          3   4
  274            fftbrc_mpi                            0.032945                        3   5
  275              fftbas_plan_mpi                       0.032936                      3   6
  276                dfftw_execute                         0.011360                    9   7
  277                map_backward                          0.006723                    2   7
  278                  map_gather                            0.000836                  1   8
  279                  m_alltoallv_z                         0.003136                  1   8
  280                  map_scatter                           0.002720                  1   8
  281                map_forward                           0.012874                    4   7
  282                  map_gather                            0.004388                  2   8
  283                  m_alltoallv_z                         0.006555                  2   8
  284                  map_scatter                           0.001886                  2   8
  285          m_sumb_d                              0.000102                          2   4
  286          pothar                                0.006164                          1   4
  287            m_sumb_d                              0.000433                        1   5
  288        m_bcast_d                             0.943339                            2   3
  289      potlok                               10.345418                              1   2
  290        fft3d_mpi                             1.150826                           86   3
  291          fftbrc_mpi                            1.087468                         86   4
  292            fftbas_plan_mpi                       1.087207                       86   5
  293              dfftw_execute                         0.315108                    258   6
  294              map_forward                           0.410352                     88   6
  295                map_gather                            0.091027                   46   7
  296                m_alltoallv_z                         0.278442                   46   7
  297                map_scatter                           0.040050                   46   7
  298              map_backward                          0.307456                     84   6
  299                map_gather                            0.034067                   42   7
  300                m_alltoallv_z                         0.164493                   42   7
  301                map_scatter                           0.108007                   42   7
  302        m_sumb_d                              0.001752                            8   3
  303        fewald                                0.001723                            2   3
  304          rsp                                   0.001563                          2   4
  305          rcp                                   0.000130                          2   4
  306        pothar                                0.003417                            1   3
  307          m_sumb_d                              0.000804                          1   4
  308        m_bcast_d                             0.004892                            2   3
  309      potlok_metagga                        0.000013                              1   2
  310      set_dd_magatom                        0.000001                              1   2
  311      set_dd_paw                            2.899941                              1   2
  312        set_rsgf_all                          0.000001                            1   3
  313        m_sumb_d                              2.899601                            8   3
  314      densta                             5356.509710                              1   2
  315        m_bcast_z                             0.000761                            1   3
 
 Flat profile
 ============
 
             routine name                   CPU           calls
 ---------------------------------------------------------------
 densta                               5397.060021          11
 total_time                           2243.902225           1
 ggemm                                1622.573561       27973
 orth1                                 546.891243       64763
 eddav                                 400.097717          10
 dfftw_execute                         291.147851      401226
 m_sumb_d                              266.552444      271202
 sphpro_fast                           195.321356           2
 m_bcast_z                             165.460990       60078
 m_alltoall_d                           84.854539      319434
 m_alltoallv_z                          84.392823      133748
 lincom                                 81.223369          44
 fftbas_plan_mpi                        74.725396      133742
 map_scatter                            65.792990      133748
 map_gather                             63.146090      133748
 fftwav_mpi                             47.767638       90592
 crrexp_mul_work_add                    37.554338     9648450
 gemm                                   34.614862     4803525
 rpromu_gemm                            33.935927     4311225
 map_forward                            30.839076      181454
 crrexp_mul_wave                        27.416108    10515150
 vhamil                                 25.946052       42882
 rpromu                                 22.215231       19161
 racc0mu                                21.899268       21349
 potlok                                 19.621717           2
 lapack                                 16.759264       21533
 redis_pw                               11.073701      115894
 force_and_stress                        9.281924           1
 w1_copy                                 9.013231      128646
 eccp                                    7.530535       12840
 fftext_mpi                              7.411670       42882
 m_bcast_d                               3.577361       43973
 kinhamil                                3.396696       42882
 set_charge                              2.994926           1
 overl                                   2.697724       72928
 apply_precond                           2.527042       30042
 setup_precond                           2.335256       12840
 forhar                                  2.331703           2
 redis_proj                              2.232990      145940
 setdij_                                 1.467529          29
 stufak                                  1.453214           2
 forloc                                  1.170186           1
 overl1                                  1.076357       42882
 choleski                                1.050843           4
 map_backward                            0.845035       86030
 fft3d_mpi                               0.762121      133742
 phaser                                  0.658448          66
 elmin                                   0.646087           1
 hamiltmu                                0.592553       21533
 newband                                 0.534085       21573
 pw_charge                               0.500561         976
 inisym                                  0.487083           1
 fftbas_mpi                              0.456371      133474
 rspher_all                              0.454389          14
 racc0                                   0.259040         184
 raccmu_                                 0.255257       21533
 strnlr                                  0.214950           1
 rpro1                                   0.206309         144
 augmentation_charge                     0.130570           1
 strkin                                  0.127698           1
 rpro_isp                                0.127084          26
 w1_projall                              0.112944       15093
 fornlr                                  0.070952           1
 posmap                                  0.062706           2
 truncate_high_frequency_w1              0.058314       55722
 orthch                                  0.028246           1
 strelo                                  0.022100           1
 soft_charge                             0.018888           1
 strehar                                 0.017103           1
 chggra                                  0.015838           1
 depsum                                  0.015780           1
 pothar                                  0.011139           3
 rsp                                     0.009762           5
 fewald                                  0.007221           5
 set_dd_paw                              0.002480           3
 rcp                                     0.000859           5
 fftbrc_mpi                              0.000794         268
 fft_gq                                  0.000447           1
 fordep                                  0.000330           1
 crpa_reader                             0.000261           1
 proall                                  0.000090           1
 set_rsgf_all                            0.000052           3
 vectorpot                               0.000027           2
 potlok_metagga                          0.000027           2
 set_dd_magatom                          0.000019           3
 rotate_active_occupied_orbital          0.000014           1
 redis_pw_over_bands                     0.000001           1
 ---------------------------------------------------------------
  summed up times    11982.0490159988     
 
 Accumulative profile
 ====================
 
             routine name                   CPU           calls
 ---------------------------------------------------------------
 total_time                          11982.049016           1
 densta                               5397.068463          11
 elmin                                3649.057327           1
 eddav                                3589.681895          10
 ggemm                                1622.573561       27973
 fft3d_mpi                             612.108547      133742
 fftbas_plan_mpi                       610.889261      133742
 fftbas_mpi                            607.825591      133474
 orth1                                 546.891243       64763
 fftwav_mpi                            476.531734       90592
 hamiltmu                              319.108924       21533
 dfftw_execute                         291.147851      401226
 m_sumb_d                              266.552444      271202
 sphpro_fast                           198.236140           2
 kinhamil                              190.434222       42882
 fftext_mpi                            187.037527       42882
 map_forward                           181.964608      181454
 m_bcast_z                             165.460990       60078
 force_and_stress                      134.855114           1
 rpro_isp                              113.259613          26
 raccmu_                               102.136097       21533
 racc0mu                               100.329315       21349
 rpromu                                 90.432924       19161
 newband                                88.690237       21573
 m_alltoall_d                           84.854539      319434
 m_alltoallv_z                          84.392823      133748
 lincom                                 81.223369          44
 strnlr                                 79.795798           1
 redis_pw                               73.282368      115894
 map_scatter                            65.792990      133748
 map_gather                             63.146090      133748
 map_backward                           63.051406       86030
 w1_projall                             61.910427       15093
 crrexp_mul_work_add                    37.554338     9648450
 gemm                                   34.614862     4803525
 rpromu_gemm                            33.935927     4311225
 crrexp_mul_wave                        27.416108    10515150
 fornlr                                 26.601877           1
 vhamil                                 25.946052       42882
 redis_proj                             24.878862      145940
 potlok                                 22.098192           2
 lapack                                 16.759264       21533
 orthch                                 12.067366           1
 set_charge                              9.020514           1
 w1_copy                                 9.013231      128646
 set_dd_paw                              8.817570           3
 proall                                  8.658191           1
 eccp                                    8.595921       12840
 soft_charge                             5.491050           1
 m_bcast_d                               3.577361       43973
 fftbrc_mpi                              3.520834         268
 setup_precond                           2.704841       12840
 overl                                   2.697724       72928
 apply_precond                           2.527042       30042
 forhar                                  2.340967           2
 setdij_                                 1.584343          29
 stufak                                  1.453214           2
 forloc                                  1.172033           1
 overl1                                  1.076357       42882
 choleski                                1.050843           4
 phaser                                  0.658448          66
 inisym                                  0.549789           1
 pw_charge                               0.500561         976
 racc0                                   0.475167         184
 rspher_all                              0.454389          14
 rpro1                                   0.326415         144
 fordep                                  0.325561           1
 fewald                                  0.293392           5
 depsum                                  0.265983           1
 augmentation_charge                     0.161401           1
 strkin                                  0.135115           1
 posmap                                  0.062706           2
 truncate_high_frequency_w1              0.058314       55722
 chggra                                  0.057286           1
 strelo                                  0.022791           1
 strehar                                 0.017765           1
 pothar                                  0.013068           3
 fft_gq                                  0.010044           1
 rsp                                     0.009762           5
 rcp                                     0.000859           5
 crpa_reader                             0.000261           1
 set_rsgf_all                            0.000052           3
 vectorpot                               0.000027           2
 potlok_metagga                          0.000027           2
 set_dd_magatom                          0.000019           3
 rotate_active_occupied_orbital          0.000014           1
 redis_pw_over_bands                     0.000001           1
 ---------------------------------------------------------------
 
Profiling took  16.130641  9.832457  0.008146  0.007453 seconds
Profiling took  15.216055 seconds
