 vasp.6.3.2 27Jun22 (build Jan 03 2024 23:05:41) complex                        
  
 executed on           IFC15_impi date 2024.07.30  23:52:17
 running  512 mpi-ranks, with    1 threads/rank
 distrk:  each k-point on   64 cores,    8 groups
 distr:  one band on NCORE=  16 cores,    4 groups


--------------------------------------------------------------------------------------------------------


 INCAR:
   ENCUT = 600.00
   EDIFF = 1.00e-06
   EDIFFG = -0.01
   IBRION = 2
   ALGO = Normal
   ISMEAR = 0
   SIGMA = 0.05
   LCHARG = .FALSE.
   LWAVE = .FALSE.
   LREAL = Auto
   NELM = 2000
   NSW = 5000
   NCORE = 16
   KPAR = 8
   ISPIN = 2
   GGA = MK
   PARAM1 = 0.1234
   PARAM2 = 1.0
   AGGAC = 0.0
   LUSE_VDW = .TRUE.
   LASPH = .TRUE.
   LDIPOL = .TRUE.
   DIPOL = 0.5 0.5 0.5
   IDIPOL = 3

 POTCAR:    PAW_PBE Mo_sv 02Feb2006               
 POTCAR:    PAW_PBE S 06Sep2000                   
 -----------------------------------------------------------------------------
|                                                                             |
|           W    W    AA    RRRRR   N    N  II  N    N   GGGG   !!!           |
|           W    W   A  A   R    R  NN   N  II  NN   N  G    G  !!!           |
|           W    W  A    A  R    R  N N  N  II  N N  N  G       !!!           |
|           W WW W  AAAAAA  RRRRR   N  N N  II  N  N N  G  GGG   !            |
|           WW  WW  A    A  R   R   N   NN  II  N   NN  G    G                |
|           W    W  A    A  R    R  N    N  II  N    N   GGGG   !!!           |
|                                                                             |
|     You use a magnetic or noncollinear calculation, but did not specify     |
|     the initial magnetic moment with the MAGMOM tag. Note that a            |
|     default of 1 will be used for all atoms. This ferromagnetic setup       |
|     may break the symmetry of the crystal, in particular it may rule        |
|     out finding an antiferromagnetic solution. Thence, we recommend         |
|     setting the initial magnetic moment manually or verifying carefully     |
|     that this magnetic setup is desired.                                    |
|                                                                             |
 -----------------------------------------------------------------------------

 -----------------------------------------------------------------------------
|                                                                             |
|               ----> ADVICE to this user running VASP <----                  |
|                                                                             |
|     You have switched on vdW-DFT.                                           |
|     This routine was written and supplied by Jiri Klimes. We recommend      |
|     that you carefully read and cite the following publications:            |
|       J. Klimes, D.R. Bowler, A. Michelides                                 |
|          J. Phys.: Cond Matt. 22 022201 (2010)                              |
|       J. Klimes, D.R. Bowler, A. Michelides                                 |
|          Phys. Rev. B. 83, 195131 (2011)                                    |
|     and references therein.                                                 |
|                                                                             |
 -----------------------------------------------------------------------------

 POTCAR:    PAW_PBE Mo_sv 02Feb2006               
   SHA256 =  2731df97e41766cc617548c5a8267718fdef1f509ac6bafa01e745abea2bdfaa Mo_sv/POTCAR          
   COPYR  = (c) Copyright 02Feb2006 Georg Kresse                                                    
   COPYR  = This file is part of the software VASP. Any use, copying, and all other rights are regul
   COPYR  = If you do not have a valid VASP license, you may not use, copy or distribute this file. 
   VRHFIN =Mo: 4p5s4d                                                                               
   LEXCH  = PE                                                                                      
   EATOM  =  1862.2866 eV,  136.8742 Ry                                                             
                                                                                                    
   TITEL  = PAW_PBE Mo_sv 02Feb2006                                                                 
   LULTRA =        F    use ultrasoft PP ?                                                          
   IUNSCR =        1    unscreen: 0-lin 1-nonlin 2-no                                               
   RPACOR =    2.200    partial core radius                                                         
   POMASS =   95.940; ZVAL   =   14.000    mass and valenz                                          
   RCORE  =    2.500    outmost cutoff radius                                                       
   RWIGS  =    2.750; RWIGS  =    1.455    wigner-seitz radius (au A)                               
   ENMAX  =  242.676; ENMIN  =  182.007 eV                                                          
   ICORE  =        3    local potential                                                             
   LCOR   =        T    correct aug charges                                                         
   LPAW   =        T    paw PP                                                                      
   EAUG   =  446.014                                                                                
   DEXC   =    0.000                                                                                
   RMAX   =    2.563    core radius for proj-oper                                                   
   RAUG   =    1.300    factor for augmentation sphere                                              
   RDEP   =    2.641    radius for radial grids                                                     
   RDEPT  =    2.031    core radius for aug-charge                                                  
                                                                                                    
   Atomic configuration                                                                             
   11 entries                                                                                       
     n  l   j            E        occ.                                                              
     1  0  0.50    -19819.0341   2.0000                                                             
     2  0  0.50     -2799.0127   2.0000                                                             
     2  1  1.50     -2502.0276   6.0000                                                             
     3  0  0.50      -476.4449   2.0000                                                             
     3  1  1.50      -379.1496   6.0000                                                             
     3  2  2.50      -220.9367  10.0000                                                             
     4  0  0.50       -64.3378   2.0000                                                             
     5  0  0.50        -4.0862   1.0000                                                             
     4  1  1.50       -38.4773   6.0000                                                             
     4  2  2.50        -3.7535   5.0000                                                             
     4  3  2.50        -1.3606   0.0000                                                             
   Description                                                                                      
     l       E           TYP  RCUT    TYP  RCUT                                                     
     0    -64.3377829     23  2.100                                                                 
     0     -4.0861640     23  2.400                                                                 
     1    -38.4772993     23  2.100                                                                 
     1     13.6058260     23  2.100                                                                 
     2     -3.7534941     23  2.400                                                                 
     2     -5.1140767     23  2.400                                                                 
     3     -4.0817478     23  2.500                                                                 
  local pseudopotential read in
  partial core-charges read in
  partial kinetic energy density read in
  atomic valenz-charges read in
  non local Contribution for L=           0  read in
    real space projection operators read in
  non local Contribution for L=           0  read in
    real space projection operators read in
  non local Contribution for L=           1  read in
    real space projection operators read in
  non local Contribution for L=           1  read in
    real space projection operators read in
  non local Contribution for L=           2  read in
    real space projection operators read in
  non local Contribution for L=           2  read in
    real space projection operators read in
    PAW grid and wavefunctions read in
 
   number of l-projection  operators is LMAX  =           6
   number of lm-projection operators is LMMAX =          18
 
 POTCAR:    PAW_PBE S 06Sep2000                   
   SHA256 =  0fc7481fb0695f01bdc6462160264c5c84044ae9ec85a907d398b887a2bc3132 S/POTCAR              
   COPYR  = (c) Copyright 06Sep2000 Georg Kresse                                                    
   COPYR  = This file is part of the software VASP. Any use, copying, and all other rights are regul
   COPYR  = If you do not have a valid VASP license, you may not use, copy or distribute this file. 
   VRHFIN =S : s2p4                                                                                 
   LEXCH  = PE                                                                                      
   EATOM  =   276.8230 eV,   20.3459 Ry                                                             
                                                                                                    
   TITEL  = PAW_PBE S 06Sep2000                                                                     
   LULTRA =        F    use ultrasoft PP ?                                                          
   IUNSCR =        1    unscreen: 0-lin 1-nonlin 2-no                                               
   RPACOR =    1.500    partial core radius                                                         
   POMASS =   32.066; ZVAL   =    6.000    mass and valenz                                          
   RCORE  =    1.900    outmost cutoff radius                                                       
   RWIGS  =    2.200; RWIGS  =    1.164    wigner-seitz radius (au A)                               
   ENMAX  =  258.689; ENMIN  =  194.016 eV                                                          
   ICORE  =        2    local potential                                                             
   LCOR   =        T    correct aug charges                                                         
   LPAW   =        T    paw PP                                                                      
   EAUG   =  335.092                                                                                
   DEXC   =    0.000                                                                                
   RMAX   =    1.942    core radius for proj-oper                                                   
   RAUG   =    1.300    factor for augmentation sphere                                              
   RDEP   =    1.954    radius for radial grids                                                     
   RDEPT  =    1.744    core radius for aug-charge                                                  
                                                                                                    
   Atomic configuration                                                                             
    6 entries                                                                                       
     n  l   j            E        occ.                                                              
     1  0  0.50     -2405.8406   2.0000                                                             
     2  0  0.50      -211.7007   2.0000                                                             
     2  1  1.50      -156.4958   6.0000                                                             
     3  0  0.50       -17.2562   2.0000                                                             
     3  1  0.50        -7.0085   4.0000                                                             
     3  2  1.50        -6.8029   0.0000                                                             
   Description                                                                                      
     l       E           TYP  RCUT    TYP  RCUT                                                     
     0    -17.2561641     23  1.900                                                                 
     0    -15.8743224     23  1.900                                                                 
     1     -7.0085400     23  1.900                                                                 
     1     -2.7779785     23  1.900                                                                 
     2     -6.8029130     23  1.900                                                                 
  local pseudopotential read in
  partial core-charges read in
  partial kinetic energy density read in
  atomic valenz-charges read in
  non local Contribution for L=           0  read in
    real space projection operators read in
  non local Contribution for L=           0  read in
    real space projection operators read in
  non local Contribution for L=           1  read in
    real space projection operators read in
  non local Contribution for L=           1  read in
    real space projection operators read in
    PAW grid and wavefunctions read in
 
   number of l-projection  operators is LMAX  =           4
   number of lm-projection operators is LMMAX =           8
 
 Optimization of the real space projectors (new method)

 maximal supplied QI-value         = 15.12
 optimisation between [QCUT,QGAM] = [ 12.55, 25.10] = [ 44.09,176.36] Ry 
 Optimized for a Real-space Cutoff    1.47 Angstroem

   l    n(q)    QCUT    max X(q) W(low)/X(q) W(high)/X(q)  e(spline) 
   0     11    12.548     3.559    0.18E-04    0.60E-05    0.19E-06
   0     11    12.548    20.730    0.37E-04    0.13E-04    0.98E-07
   1     11    12.548     3.279    0.80E-06    0.70E-06    0.27E-07
   1     11    12.548     4.693    0.72E-04    0.11E-03    0.38E-06
   2     10    12.548    67.616    0.34E-03    0.45E-03    0.54E-06
   2     10    12.548    62.420    0.34E-03    0.45E-03    0.54E-06
 Optimization of the real space projectors (new method)

 maximal supplied QI-value         = 19.84
 optimisation between [QCUT,QGAM] = [ 12.50, 25.00] = [ 43.76,175.03] Ry 
 Optimized for a Real-space Cutoff    1.06 Angstroem

   l    n(q)    QCUT    max X(q) W(low)/X(q) W(high)/X(q)  e(spline) 
   0      8    12.501   187.594    0.26E-03    0.17E-03    0.97E-07
   0      8    12.501   164.243    0.26E-03    0.17E-03    0.96E-07
   1      7    12.501    67.533    0.50E-03    0.61E-03    0.91E-07
   1      7    12.501    50.729    0.48E-03    0.60E-03    0.90E-07
 -----------------------------------------------------------------------------
|                                                                             |
|               ----> ADVICE to this user running VASP <----                  |
|                                                                             |
|     You enforced a specific xc type in the INCAR file but a different       |
|     type was found in the POTCAR file.                                      |
|     I HOPE YOU KNOW WHAT YOU ARE DOING!                                     |
|                                                                             |
 -----------------------------------------------------------------------------

  PAW_PBE Mo_sv 02Feb2006               :
 energy of atom  1       EATOM=-1862.2866
 kinetic energy error for atom=    0.0041 (will be added to EATOM!!)
  PAW_PBE S 06Sep2000                   :
 energy of atom  2       EATOM= -276.8230
 kinetic energy error for atom=    0.0009 (will be added to EATOM!!)
 
 
 POSCAR: Mo S
  positions in cartesian coordinates
  No initial velocities read in
 exchange correlation table for  LEXCH =       43
   RHO(1)=    0.500       N(1)  =     2000
   RHO(2)=  100.500       N(2)  =     4000

 VTST: version 4.1, (05/19/21)

 CHAIN: initializing optimizer
 
 OPT: Using VASP Conjugate-Gradient optimizer
 CHAIN: Read ICHAIN            0
 
 POSCAR: Mo S
  positions in cartesian coordinates
  No initial velocities read in
 


--------------------------------------------------------------------------------------------------------


 ion  position               nearest neighbor table
   1  0.667  0.733  0.500-  36 2.41  65 2.41  40 2.41  37 2.41  66 2.41  39 2.41  11 3.16   3 3.16
                            13 3.16  23 3.16  19 3.16  14 3.16
   2  0.267  0.933  0.500-  71 2.41  47 2.41  51 2.41  72 2.41  48 2.41  49 2.41  25 3.16   4 3.16
                            18 3.16  10 3.16  17 3.16   8 3.16
   3  0.667  0.933  0.500-  36 2.41  67 2.41  33 2.41  37 2.41  45 2.41  32 2.41  10 3.16   1 3.16
                            11 3.16   9 3.16  23 3.16   6 3.16
   4  0.267  0.733  0.500-  52 2.41  71 2.41  69 2.41  46 2.41  72 2.41  70 2.41  18 3.16   2 3.16
                            20 3.16  10 3.16   5 3.16  11 3.16
   5  0.267  0.533  0.500-  60 2.41  57 2.41  69 2.41  68 2.41  58 2.41  70 2.41  20 3.16   7 3.16
                            22 3.16   4 3.16  13 3.16  11 3.16
   6  0.867  0.133  0.500-  35 2.41  33 2.41  29 2.41  30 2.41  32 2.41  42 2.41  23 3.16  24 3.16
                             9 3.16  16 3.16   3 3.16  22 3.16
   7  0.267  0.333  0.500-  55 2.41  60 2.41  50 2.41  56 2.41  68 2.41  59 2.41  22 3.16   5 3.16
                            24 3.16  13 3.16  15 3.16  17 3.16
   8  0.467  0.133  0.500-  73 2.41  61 2.41  51 2.41  74 2.41  49 2.41  62 2.41   9 3.16  12 3.16
                            10 3.16  15 3.16  17 3.16   2 3.16
   9  0.667  0.133  0.500-  33 2.41  26 2.41  73 2.41  32 2.41  28 2.41  74 2.41   8 3.16  10 3.16
                             3 3.16   6 3.16  12 3.16  16 3.16
  10  0.467  0.933  0.500-  67 2.41  71 2.41  73 2.41  45 2.41  72 2.41  74 2.41   3 3.16  11 3.16
                             9 3.16   4 3.16   2 3.16   8 3.16
  11  0.467  0.733  0.500-  65 2.41  67 2.41  69 2.41  66 2.41  45 2.41  70 2.41   1 3.16  10 3.16
                             3 3.16   4 3.16  13 3.16   5 3.16
  12  0.667  0.333  0.500-  44 2.41  61 2.41  26 2.41  43 2.41  62 2.41  28 2.41  15 3.16  14 3.16
                             8 3.16  21 3.16  16 3.16   9 3.16
  13  0.467  0.533  0.500-  63 2.41  60 2.41  65 2.41  64 2.41  66 2.41  68 2.41  14 3.16  15 3.16
                             1 3.16   7 3.16   5 3.16  11 3.16
  14  0.667  0.533  0.500-  44 2.41  40 2.41  63 2.41  43 2.41  39 2.41  64 2.41  13 3.16  12 3.16
                            15 3.16   1 3.16  21 3.16  19 3.16
  15  0.467  0.333  0.500-  61 2.41  50 2.41  63 2.41  62 2.41  59 2.41  64 2.41  12 3.16  13 3.16
                            14 3.16   8 3.16   7 3.16  17 3.16
  16  0.867  0.333  0.500-  29 2.41  26 2.41  38 2.41  42 2.41  41 2.41  28 2.41  21 3.16  20 3.16
                             6 3.16  12 3.16  22 3.16   9 3.16
  17  0.267  0.133  0.500-  51 2.41  50 2.41  53 2.41  49 2.41  54 2.41  59 2.41  24 3.16  25 3.16
                             8 3.16   2 3.16   7 3.16  15 3.16
  18  0.067  0.733  0.500-  52 2.41  47 2.41  31 2.41  46 2.41  48 2.41  27 2.41   4 3.16  25 3.16
                             2 3.16  20 3.16  19 3.16  21 3.16
  19  0.867  0.733  0.500-  31 2.41  34 2.41  40 2.41  27 2.41  39 2.41  75 2.41  23 3.16  25 3.16
                            21 3.16   1 3.16  18 3.16  14 3.16
  20  0.067  0.533  0.500-  57 2.41  52 2.41  38 2.41  58 2.41  46 2.41  41 2.41   5 3.16  22 3.16
                             4 3.16  16 3.16  21 3.16  18 3.16
  21  0.867  0.533  0.500-  38 2.41  31 2.41  44 2.41  41 2.41  43 2.41  27 2.41  16 3.16  12 3.16
                            14 3.16  19 3.16  20 3.16  18 3.16
  22  0.067  0.333  0.500-  55 2.41  57 2.41  29 2.41  56 2.41  58 2.41  42 2.41   7 3.16  20 3.16
                             5 3.16  16 3.16  24 3.16   6 3.16
  23  0.867  0.933  0.500-  34 2.41  36 2.41  35 2.41  75 2.41  37 2.41  30 2.41  19 3.16   1 3.16
                             6 3.16   3 3.16  25 3.16  24 3.16
  24  0.067  0.133  0.500-  53 2.41  55 2.41  35 2.41  54 2.41  56 2.41  30 2.41  17 3.16   7 3.16
                             6 3.16  22 3.16  25 3.16  23 3.16
  25  0.067  0.933  0.500-  47 2.41  34 2.41  53 2.41  48 2.41  75 2.41  54 2.41   2 3.16  18 3.16
                            17 3.16  19 3.16  23 3.16  24 3.16
  26  0.733  0.267  0.568-   9 2.41  16 2.41  12 2.41
  27  0.933  0.667  0.432-  19 2.41  21 2.41  18 2.41
  28  0.733  0.267  0.432-   9 2.41  16 2.41  12 2.41
  29  0.933  0.267  0.568-  16 2.41   6 2.41  22 2.41
  30  0.933  0.067  0.432-   6 2.41  24 2.41  23 2.41
  31  0.933  0.667  0.568-  19 2.41  21 2.41  18 2.41
  32  0.733  0.067  0.432-   9 2.41   6 2.41   3 2.41
  33  0.733  0.067  0.568-   9 2.41   6 2.41   3 2.41
  34  0.933  0.867  0.568-  23 2.41  19 2.41  25 2.41
  35  0.933  0.067  0.568-   6 2.41  24 2.41  23 2.41
  36  0.733  0.867  0.568-   3 2.41   1 2.41  23 2.41
  37  0.733  0.867  0.432-   3 2.41   1 2.41  23 2.41
  38  0.933  0.467  0.568-  21 2.41  16 2.41  20 2.41
  39  0.733  0.667  0.432-  14 2.41  19 2.41   1 2.41
  40  0.733  0.667  0.568-  14 2.41  19 2.41   1 2.41
  41  0.933  0.467  0.432-  21 2.41  16 2.41  20 2.41
  42  0.933  0.267  0.432-  16 2.41   6 2.41  22 2.41
  43  0.733  0.467  0.432-  14 2.41  12 2.41  21 2.41
  44  0.733  0.467  0.568-  14 2.41  12 2.41  21 2.41
  45  0.533  0.867  0.432-  10 2.41   3 2.41  11 2.41
  46  0.133  0.667  0.432-  18 2.41   4 2.41  20 2.41
  47  0.133  0.867  0.568-  25 2.41  18 2.41   2 2.41
  48  0.133  0.867  0.432-  25 2.41  18 2.41   2 2.41
  49  0.333  0.067  0.432-  17 2.41   8 2.41   2 2.41
  50  0.333  0.267  0.568-  15 2.41  17 2.41   7 2.41
  51  0.333  0.067  0.568-  17 2.41   8 2.41   2 2.41
  52  0.133  0.667  0.568-  18 2.41   4 2.41  20 2.41
  53  0.133  0.067  0.568-  24 2.41  17 2.41  25 2.41
  54  0.133  0.067  0.432-  24 2.41  17 2.41  25 2.41
  55  0.133  0.267  0.568-  22 2.41   7 2.41  24 2.41
  56  0.133  0.267  0.432-  22 2.41   7 2.41  24 2.41
  57  0.133  0.467  0.568-  20 2.41   5 2.41  22 2.41
  58  0.133  0.467  0.432-  20 2.41   5 2.41  22 2.41
  59  0.333  0.267  0.432-  15 2.41  17 2.41   7 2.41
  60  0.333  0.467  0.568-   5 2.41   7 2.41  13 2.41
  61  0.533  0.267  0.568-  15 2.41  12 2.41   8 2.41
  62  0.533  0.267  0.432-  15 2.41  12 2.41   8 2.41
  63  0.533  0.467  0.568-  13 2.41  14 2.41  15 2.41
  64  0.533  0.467  0.432-  13 2.41  14 2.41  15 2.41
  65  0.533  0.667  0.568-  11 2.41   1 2.41  13 2.41
  66  0.533  0.667  0.432-  11 2.41   1 2.41  13 2.41
  67  0.533  0.867  0.568-  10 2.41   3 2.41  11 2.41
  68  0.333  0.467  0.432-   5 2.41   7 2.41  13 2.41
  69  0.333  0.667  0.568-   5 2.41  11 2.41   4 2.41
  70  0.333  0.667  0.432-   5 2.41  11 2.41   4 2.41
  71  0.333  0.867  0.568-   2 2.41   4 2.41  10 2.41
  72  0.333  0.867  0.432-   2 2.41   4 2.41  10 2.41
  73  0.533  0.067  0.568-   8 2.41   9 2.41  10 2.41
  74  0.533  0.067  0.432-   8 2.41   9 2.41  10 2.41
  75  0.933  0.867  0.432-  23 2.41  19 2.41  25 2.41
 
  LATTYP: Found a hexagonal cell.
 ALAT       =    15.8227970706
 C/A-ratio  =     1.4623157837
  
  Lattice vectors:
  
 A1 = (   7.9113985353, -13.7029442220,   0.0000000000)
 A2 = (   7.9113985353,  13.7029442220,   0.0000000000)
 A3 = (   0.0000000000,   0.0000000000,  23.1379258980)


Analysis of symmetry for initial positions (statically):
=====================================================================
 Subroutine PRICEL returns following result:
 
  LATTYP: Found a hexagonal cell.
 ALAT       =     3.1645594141
 C/A-ratio  =     7.3115789183
  
  Lattice vectors:
  
 A1 = (   1.5822797071,  -2.7405888444,   0.0000000000)
 A2 = (   1.5822797071,   2.7405888444,   0.0000000000)
 A3 = (   0.0000000000,   0.0000000000,  23.1379258980)
 
  25 primitive cells build up your supercell.
 

 Routine SETGRP: Setting up the symmetry group for a 
 hexagonal supercell.


 Subroutine GETGRP returns: Found  6 space group operations
 (whereof  6 operations were pure point group operations)
 out of a pool of 24 trial point group operations.


The static configuration has the point symmetry C_3v.


Analysis of symmetry for dynamics (positions and initial velocities):
=====================================================================
 Subroutine PRICEL returns following result:
 
  LATTYP: Found a hexagonal cell.
 ALAT       =     3.1645594141
 C/A-ratio  =     7.3115789183
  
  Lattice vectors:
  
 A1 = (   1.5822797071,  -2.7405888444,   0.0000000000)
 A2 = (   1.5822797071,   2.7405888444,   0.0000000000)
 A3 = (   0.0000000000,   0.0000000000,  23.1379258980)
 
  25 primitive cells build up your supercell.
 

 Routine SETGRP: Setting up the symmetry group for a 
 hexagonal supercell.


 Subroutine GETGRP returns: Found  6 space group operations
 (whereof  6 operations were pure point group operations)
 out of a pool of 24 trial point group operations.


The dynamic configuration has the point symmetry C_3v.


Analysis of structural, dynamic, and magnetic symmetry:
=====================================================================
 Subroutine PRICEL returns following result:
 
  LATTYP: Found a hexagonal cell.
 ALAT       =     3.1645594141
 C/A-ratio  =     7.3115789183
  
  Lattice vectors:
  
 A1 = (   1.5822797071,  -2.7405888444,   0.0000000000)
 A2 = (   1.5822797071,   2.7405888444,   0.0000000000)
 A3 = (   0.0000000000,   0.0000000000,  23.1379258980)
 
  25 primitive cells build up your supercell.
 

 Routine SETGRP: Setting up the symmetry group for a 
 hexagonal supercell.


 Subroutine GETGRP returns: Found  6 space group operations
 (whereof  6 operations were pure point group operations)
 out of a pool of 24 trial point group operations.


The overall configuration has the point symmetry C_3v.


 Subroutine INISYM returns: Found  6 space group operations
 (whereof  6 operations are pure point group operations),
 and found    25 'primitive' translations


----------------------------------------------------------------------------------------

                                     Primitive cell                                     

  volume of cell :     200.6696

  direct lattice vectors                    reciprocal lattice vectors
     1.582279707 -2.740588844  0.000000000     0.315999755 -0.182442544  0.000000000
     1.582279707  2.740588844  0.000000000     0.315999755  0.182442544  0.000000000
     0.000000000  0.000000000 23.137925898     0.000000000  0.000000000  0.043219086

  length of vectors
     3.164559414  3.164559414 23.137925898     0.364885087  0.364885087  0.043219086

  position of ions in fractional coordinates (direct lattice)
     0.333333333  0.666666667  0.500020000
     0.666666667  0.333333333  0.567779216
     0.666666667  0.333333333  0.432160928

  ion indices of the primitive-cell ions
   primitive index   ion index
                 1           1
                 2          40
                 3          39

----------------------------------------------------------------------------------------

 
 
 KPOINTS: K-Points                                

Automatic generation of k-mesh.
 Grid dimensions read from file:
 generate k-points for:    3    3    1

 Generating k-lattice:

  Cartesian coordinates                     Fractional coordinates (reciprocal lattice)
     0.021066650 -0.012162836  0.000000000     0.333333333 -0.000000000  0.000000000
     0.021066650  0.012162836  0.000000000    -0.000000000  0.333333333  0.000000000
     0.000000000  0.000000000  0.043219086     0.000000000  0.000000000  1.000000000

  Length of vectors
     0.024325672  0.024325672  0.043219086

  Shift w.r.t. Gamma in fractional coordinates (k-lattice)
     0.000000000  0.000000000  0.000000000

 
 Subroutine IBZKPT returns following result:
 ===========================================
 
 Found      3 irreducible k-points:
 
 Following reciprocal coordinates:
            Coordinates               Weight
  0.000000  0.000000  0.000000      1.000000
  0.333333  0.000000  0.000000      6.000000
  0.333333  0.333333  0.000000      2.000000
 
 Following cartesian coordinates:
            Coordinates               Weight
  0.000000  0.000000  0.000000      1.000000
  0.021067 -0.012163  0.000000      6.000000
  0.042133 -0.000000  0.000000      2.000000
 


--------------------------------------------------------------------------------------------------------




 Dimension of arrays:
   k-points           NKPTS =      3   k-points in BZ     NKDIM =      3   number of bands    NBANDS=    428
   number of dos      NEDOS =    301   number of ions     NIONS =     75
   non local maximal  LDIM  =      6   non local SUM 2l+1 LMDIM =     18
   total plane-waves  NPLWV = ******
   max r-space proj   IRMAX =   3477   max aug-charges    IRDMAX=  11445
   dimension x,y,z NGX =    96 NGY =   96 NGZ =  140
   dimension x,y,z NGXF=   192 NGYF=  192 NGZF=  280
   support grid    NGXF=   192 NGYF=  192 NGZF=  280
   ions per type =              25  50
   NGX,Y,Z   is equivalent  to a cutoff of  10.09, 10.09, 10.06 a.u.
   NGXF,Y,Z  is equivalent  to a cutoff of  20.17, 20.17, 20.12 a.u.

 SYSTEM =  unknown system                          
 POSCAR =  Mo S                                    

 Startparameter for this run:
   NWRITE =      2    write-flag & timer
   PREC   = normal    normal or accurate (medium, high low for compatibility)
   ISTART =      0    job   : 0-new  1-cont  2-samecut
   ICHARG =      2    charge: 1-file 2-atom 10-const
   ISPIN  =      2    spin polarized calculation?
   LNONCOLLINEAR =      F non collinear calculations
   LSORBIT =      F    spin-orbit coupling
   INIWAV =      1    electr: 0-lowe 1-rand  2-diag
   LASPH  =      T    aspherical Exc in radial PAW
 Electronic Relaxation 1
   ENCUT  =  600.0 eV  44.10 Ry    6.64 a.u.  31.60 31.60 46.21*2*pi/ulx,y,z
   ENINI  =  600.0     initial cutoff
   ENAUG  =  446.0 eV  augmentation charge cutoff
   NELM   =   2000;   NELMIN=  2; NELMDL= -5     # of ELM steps 
   EDIFF  = 0.1E-05   stopping-criterion for ELM
   LREAL  =      T    real-space projection
   NLSPLINE    = F    spline interpolate recip. space projectors
   LCOMPAT=      F    compatible to vasp.4.4
   GGA_COMPAT  = T    GGA compatible to vasp.4.4-vasp.4.6
   LMAXPAW     = -100 max onsite density
   LMAXMIX     =    2 max onsite mixed and CHGCAR
   VOSKOWN=      0    Vosko Wilk Nusair interpolation
   ROPT   =   -0.00050  -0.00050
 Ionic relaxation
   EDIFFG = -.1E-01   stopping-criterion for IOM
   NSW    =   5000    number of steps for IOM
   NBLOCK =      1;   KBLOCK =   5000    inner block; outer block 
   IBRION =      2    ionic relax: 0-MD 1-quasi-New 2-CG
   NFREE  =      1    steps in history (QN), initial steepest desc. (CG)
   ISIF   =      2    stress and relaxation
   IWAVPR =     11    prediction:  0-non 1-charg 2-wave 3-comb
   ISYM   =      2    0-nonsym 1-usesym 2-fastsym
   LCORR  =      T    Harris-Foulkes like correction to forces

   POTIM  = 0.5000    time-step for ionic-motion
   TEIN   =    0.0    initial temperature
   TEBEG  =    0.0;   TEEND  =   0.0 temperature during run
   SMASS  =  -3.00    Nose mass-parameter (am)
   estimated Nose-frequenzy (Omega)   =  0.10E-29 period in steps = 0.13E+47 mass=  -0.572E-26a.u.
   SCALEE = 1.0000    scale energy and forces
   NPACO  =    256;   APACO  = 10.0  distance and # of slots for P.C.
   PSTRESS=    0.0 pullay stress

  Mass of Ions in am
   POMASS =  95.94 32.07
  Ionic Valenz
   ZVAL   =  14.00  6.00
  Atomic Wigner-Seitz radii
   RWIGS  =  -1.00 -1.00
  virtual crystal weights 
   VCA    =   1.00  1.00
   NELECT =     650.0000    total number of electrons
   NUPDOWN=      -1.0000    fix difference up-down

 DOS related values:
   EMIN   =  10.00;   EMAX   =-10.00  energy-range for DOS
   EFERMI =   0.00
   ISMEAR =     0;   SIGMA  =   0.05  broadening in eV -4-tet -1-fermi 0-gaus

 Electronic relaxation 2 (details)
   IALGO  =     38    algorithm
   LDIAG  =      T    sub-space diagonalisation (order eigenvalues)
   LSUBROT=      F    optimize rotation matrix (better conditioning)
   TURBO    =      0    0=normal 1=particle mesh
   IRESTART =      0    0=no restart 2=restart with 2 vectors
   NREBOOT  =      0    no. of reboots
   NMIN     =      0    reboot dimension
   EREF     =   0.00    reference energy to select bands
   IMIX   =      4    mixing-type and parameters
     AMIX     =   0.40;   BMIX     =  1.00
     AMIX_MAG =   1.60;   BMIX_MAG =  1.00
     AMIN     =   0.10
     WC   =   100.;   INIMIX=   1;  MIXPRE=   1;  MAXMIX= -45

 Intra band minimization:
   WEIMIN = 0.0010     energy-eigenvalue tresh-hold
   EBREAK =  0.58E-09  absolut break condition
   DEPER  =   0.30     relativ break condition  

   TIME   =   0.40     timestep for ELM

  volume/ion in A,a.u.               =      66.89       451.40
  Fermi-wavevector in a.u.,A,eV,Ry     =   0.828397  1.565444  9.336894  0.686242
  Thomas-Fermi vector in A             =   1.940766
 
 Write flags
   LWAVE        =      F    write WAVECAR
   LDOWNSAMPLE  =      F    k-point downsampling of WAVECAR
   LCHARG       =      F    write CHGCAR
   LVTOT        =      F    write LOCPOT, total local potential
   LVHAR        =      F    write LOCPOT, Hartree potential only
   LELF         =      F    write electronic localiz. function (ELF)
   LORBIT       =      0    0 simple, 1 ext, 2 COOP (PROOUT), +10 PAW based schemes


 Dipole corrections
   LMONO  =      F    monopole corrections only (constant potential shift)
   LDIPOL =      T    correct potential (dipole corrections)
   IDIPOL =      3    1-x, 2-y, 3-z, 4-all directions 
   EPSILON=  1.0000000 bulk dielectric constant

 Exchange correlation treatment:
   GGA     =    MK    GGA type
   LEXCH   =    43    internal setting for exchange type
   LIBXC   =     F    Libxc                    
   VOSKOWN =     0    Vosko Wilk Nusair interpolation
   LHFCALC =     F    Hartree Fock is set to
   LHFONE  =     F    Hartree Fock one center treatment
   AEXX    =    0.0000 exact exchange contribution

 vdW DFT:
   LUSE_VDW   =     T    switch on vdW DFT
   Zab_VDW    =-.8491    correlation parameter
   PARAM1     =0.1234
   PARAM2     =1.0000
   PARAM3     =0.0000
   -- rVV10 --
   BPARAM     = 6.3000
   CPARAM     = 0.0093

 Linear response parameters
   LEPSILON=     F    determine dielectric tensor
   LRPA    =     F    only Hartree local field effects (RPA)
   LNABLA  =     F    use nabla operator in PAW spheres
   LVEL    =     F    velocity operator in full k-point grid
   CSHIFT  =0.1000    complex shift for real part using Kramers Kronig
   OMEGAMAX=  -1.0    maximum frequency
   DEG_THRESHOLD= 0.2000000E-02 threshold for treating states as degnerate
   RTIME   =   -0.100 relaxation time in fs
  (WPLASMAI=    0.000 imaginary part of plasma frequency in eV, 0.658/RTIME)
   DFIELD  = 0.0000000 0.0000000 0.0000000 field for delta impulse in time
 
  Optional k-point grid parameters
   LKPOINTS_OPT  =     F    use optional k-point grid
   KPOINTS_OPT_MODE=     1    mode for optional k-point grid
 
 Orbital magnetization related:
   ORBITALMAG=     F  switch on orbital magnetization
   LCHIMAG   =     F  perturbation theory with respect to B field
   DQ        =  0.001000  dq finite difference perturbation B field
   LLRAUG    =     F  two centre corrections for induced B field



--------------------------------------------------------------------------------------------------------


 conjugate gradient relaxation of ions
 charge density and potential will be updated during run
 spin polarized calculation
 Variant of blocked Davidson
 Davidson routine will perform the subspace rotation
 perform sub-space diagonalisation
    after iterative eigenvector-optimisation
 modified Broyden-mixing scheme, WC =      100.0
 initial mixing is a Kerker type mixing with AMIX =  0.4000 and BMIX =      1.0000
 Hartree-type preconditioning will be used
 using additional bands          103
 real space projection scheme for non local part
 use partial core corrections
 calculate Harris-corrections to forces 
   (improved forces if not selfconsistent)
 use gradient corrections 
 use of overlap-Matrix (Vanderbilt PP)
 Gauss-broadening in eV      SIGMA  =   0.05


--------------------------------------------------------------------------------------------------------


  energy-cutoff  :      600.00
  volume of cell :     5016.74
      direct lattice vectors                 reciprocal lattice vectors
     7.911398535-13.702944222  0.000000000     0.063199951 -0.036488509  0.000000000
     7.911398535 13.702944222  0.000000000     0.063199951  0.036488509  0.000000000
     0.000000000  0.000000000 23.137925898     0.000000000  0.000000000  0.043219086

  length of vectors
    15.822797071 15.822797071 23.137925898     0.072977017  0.072977017  0.043219086


 
 k-points in units of 2pi/SCALE and weight: K-Points                                
   0.00000000  0.00000000  0.00000000       0.111
   0.02106665 -0.01216284  0.00000000       0.667
   0.04213330 -0.00000000  0.00000000       0.222
 
 k-points in reciprocal lattice and weights: K-Points                                
   0.00000000  0.00000000  0.00000000       0.111
   0.33333333  0.00000000  0.00000000       0.667
   0.33333333  0.33333333  0.00000000       0.222
 
 position of ions in fractional coordinates (direct lattice) 
   0.66666667  0.73333333  0.50002000
   0.26666667  0.93333333  0.50002000
   0.66666667  0.93333333  0.50002000
   0.26666667  0.73333333  0.50002000
   0.26666667  0.53333333  0.50002000
   0.86666667  0.13333333  0.50002000
   0.26666667  0.33333333  0.50002000
   0.46666667  0.13333333  0.50002000
   0.66666667  0.13333333  0.50002000
   0.46666667  0.93333333  0.50002000
   0.46666667  0.73333333  0.50002000
   0.66666667  0.33333333  0.50002000
   0.46666667  0.53333333  0.50002000
   0.66666667  0.53333333  0.50002000
   0.46666667  0.33333333  0.50002000
   0.86666667  0.33333333  0.50002000
   0.26666667  0.13333333  0.50002000
   0.06666667  0.73333333  0.50002000
   0.86666667  0.73333333  0.50002000
   0.06666667  0.53333333  0.50002000
   0.86666667  0.53333333  0.50002000
   0.06666667  0.33333333  0.50002000
   0.86666667  0.93333333  0.50002000
   0.06666667  0.13333333  0.50002000
   0.06666667  0.93333333  0.50002000
   0.73333333  0.26666667  0.56777922
   0.93333333  0.66666667  0.43216093
   0.73333333  0.26666667  0.43216093
   0.93333333  0.26666667  0.56777922
   0.93333333  0.06666667  0.43216093
   0.93333333  0.66666667  0.56777922
   0.73333333  0.06666667  0.43216093
   0.73333333  0.06666667  0.56777922
   0.93333333  0.86666667  0.56777922
   0.93333333  0.06666667  0.56777922
   0.73333333  0.86666667  0.56777922
   0.73333333  0.86666667  0.43216093
   0.93333333  0.46666667  0.56777922
   0.73333333  0.66666667  0.43216093
   0.73333333  0.66666667  0.56777922
   0.93333333  0.46666667  0.43216093
   0.93333333  0.26666667  0.43216093
   0.73333333  0.46666667  0.43216093
   0.73333333  0.46666667  0.56777922
   0.53333333  0.86666667  0.43216093
   0.13333333  0.66666667  0.43216093
   0.13333333  0.86666667  0.56777922
   0.13333333  0.86666667  0.43216093
   0.33333333  0.06666667  0.43216093
   0.33333333  0.26666667  0.56777922
   0.33333333  0.06666667  0.56777922
   0.13333333  0.66666667  0.56777922
   0.13333333  0.06666667  0.56777922
   0.13333333  0.06666667  0.43216093
   0.13333333  0.26666667  0.56777922
   0.13333333  0.26666667  0.43216093
   0.13333333  0.46666667  0.56777922
   0.13333333  0.46666667  0.43216093
   0.33333333  0.26666667  0.43216093
   0.33333333  0.46666667  0.56777922
   0.53333333  0.26666667  0.56777922
   0.53333333  0.26666667  0.43216093
   0.53333333  0.46666667  0.56777922
   0.53333333  0.46666667  0.43216093
   0.53333333  0.66666667  0.56777922
   0.53333333  0.66666667  0.43216093
   0.53333333  0.86666667  0.56777922
   0.33333333  0.46666667  0.43216093
   0.33333333  0.66666667  0.56777922
   0.33333333  0.66666667  0.43216093
   0.33333333  0.86666667  0.56777922
   0.33333333  0.86666667  0.43216093
   0.53333333  0.06666667  0.56777922
   0.53333333  0.06666667  0.43216093
   0.93333333  0.86666667  0.43216093
 
 position of ions in cartesian coordinates  (Angst):
  11.07595795  0.91352961 11.56942570
   9.49367824  9.13529615 11.56942570
  12.65823766  3.65411846 11.56942570
   7.91139854  6.39470730 11.56942570
   6.32911883  3.65411846 11.56942570
   7.91139854-10.04882576 11.56942570
   4.74683912  0.91352961 11.56942570
   4.74683912 -4.56764807 11.56942570
   6.32911883 -7.30823692 11.56942570
  11.07595795  6.39470730 11.56942570
   9.49367824  3.65411846 11.56942570
   7.91139854 -4.56764807 11.56942570
   7.91139854  0.91352961 11.56942570
   9.49367824 -1.82705923 11.56942570
   6.32911883 -1.82705923 11.56942570
   9.49367824 -7.30823692 11.56942570
   3.16455941 -1.82705923 11.56942570
   6.32911883  9.13529615 11.56942570
  12.65823766 -1.82705923 11.56942570
   4.74683912  6.39470730 11.56942570
  11.07595795 -4.56764807 11.56942570
   3.16455941  3.65411846 11.56942570
  14.24051736  0.91352961 11.56942570
   1.58227971  0.91352961 11.56942570
   7.91139854 11.87588499 11.56942570
   7.91139854 -6.39470730 13.13723344
  12.65823766 -3.65411846  9.99930754
   7.91139854 -6.39470730  9.99930754
   9.49367824 -9.13529615 13.13723344
   7.91139854-11.87588499  9.99930754
  12.65823766 -3.65411846 13.13723344
   6.32911883 -9.13529615  9.99930754
   6.32911883 -9.13529615 13.13723344
  14.24051736 -0.91352961 13.13723344
   7.91139854-11.87588499 13.13723344
  12.65823766  1.82705923 13.13723344
  12.65823766  1.82705923  9.99930754
  11.07595795 -6.39470730 13.13723344
  11.07595795 -0.91352961  9.99930754
  11.07595795 -0.91352961 13.13723344
  11.07595795 -6.39470730  9.99930754
   9.49367824 -9.13529615  9.99930754
   9.49367824 -3.65411846  9.99930754
   9.49367824 -3.65411846 13.13723344
  11.07595795  4.56764807  9.99930754
   6.32911883  7.30823692  9.99930754
   7.91139854 10.04882576 13.13723344
   7.91139854 10.04882576  9.99930754
   3.16455941 -3.65411846  9.99930754
   4.74683912 -0.91352961 13.13723344
   3.16455941 -3.65411846 13.13723344
   6.32911883  7.30823692 13.13723344
   1.58227971 -0.91352961 13.13723344
   1.58227971 -0.91352961  9.99930754
   3.16455941  1.82705923 13.13723344
   3.16455941  1.82705923  9.99930754
   4.74683912  4.56764807 13.13723344
   4.74683912  4.56764807  9.99930754
   4.74683912 -0.91352961  9.99930754
   6.32911883  1.82705923 13.13723344
   6.32911883 -3.65411846 13.13723344
   6.32911883 -3.65411846  9.99930754
   7.91139854 -0.91352961 13.13723344
   7.91139854 -0.91352961  9.99930754
   9.49367824  1.82705923 13.13723344
   9.49367824  1.82705923  9.99930754
  11.07595795  4.56764807 13.13723344
   6.32911883  1.82705923  9.99930754
   7.91139854  4.56764807 13.13723344
   7.91139854  4.56764807  9.99930754
   9.49367824  7.30823692 13.13723344
   9.49367824  7.30823692  9.99930754
   4.74683912 -6.39470730 13.13723344
   4.74683912 -6.39470730  9.99930754
  14.24051736 -0.91352961  9.99930754
 


--------------------------------------------------------------------------------------------------------


 k-point   1 :   0.0000 0.0000 0.0000  plane waves:  167445
 k-point   2 :   0.3333 0.0000 0.0000  plane waves:  167407
 k-point   3 :   0.3333 0.3333 0.0000  plane waves:  167430

 maximum and minimum number of plane-waves per node :     10516    10430

 maximum number of plane-waves:    167445
 maximum index in each direction: 
   IXMAX=   31   IYMAX=   31   IZMAX=   46
   IXMIN=  -31   IYMIN=  -31   IZMIN=  -46


 real space projection operators:
  total allocation   :      15578.77 KBytes
  max/ min on nodes  :        977.72        970.38


 parallel 3D FFT for wavefunctions:
    minimum data exchange during FFTs selected (reduces bandwidth)
 parallel 3D FFT for charge:
    minimum data exchange during FFTs selected (reduces bandwidth)


 total amount of memory used by VASP MPI-rank0   171338. kBytes
=======================================================================

   base      :      30000. kBytes
   nonlr-proj:       5626. kBytes
   fftplans  :       7969. kBytes
   grid      :      19445. kBytes
   one-center:        155. kBytes
   wavefun   :     108143. kBytes
 
     INWAV:  cpu time      0.0006: real time      0.0007
 Broyden mixing: mesh for mixing (old mesh)
   NGX = 63   NGY = 63   NGZ = 93
  (NGX  =192   NGY  =192   NGZ  =280)
  gives a total of 369117 points

 initial charge density was supplied:
 charge density of overlapping atoms calculated
 number of electron     650.0000000 magnetization      75.0000000
 keeping initial charge density in first step


--------------------------------------------------------------------------------------------------------


 Maximum index for non-local projection operator          244
 Maximum index for augmentation-charges          545 (set IRDMAX)


--------------------------------------------------------------------------------------------------------


 First call to EWALD:  gamma=   0.104
 Maximum number of real-space cells 3x 3x 2
 Maximum number of reciprocal cells 3x 3x 4

    FEWALD:  cpu time      0.0195: real time      0.0195


--------------------------------------- Iteration      1(   1)  ---------------------------------------


vdW kernel read from vdw_kernel.bindat
  0.0000  0.2424  0.5071  0.7962  1.1119  1.4567  1.8333  2.2446  2.6937  3.1842
  3.7199  4.3049  4.9438  5.6415  6.4036  7.2358  8.1446  9.1372 10.2212 11.4050
 12.6979 14.1099 15.6519 17.3360 19.1751 21.1837 23.3773 25.7729 28.3892 31.2465
 34.3669 37.7748 41.4965 45.5611 50.0000
 
    POTLOK:  cpu time      7.6438: real time      7.6993
    SETDIJ:  cpu time      2.8914: real time      2.8941
     EDDAV:  cpu time     22.7017: real time     22.7594
       DOS:  cpu time      0.0097: real time      0.0097
    --------------------------------------------
      LOOP:  cpu time     33.2466: real time     33.3626

 eigenvalue-minimisations  :  6176
 total energy-change (2. order) : 0.6106904E+04  (-0.3283355E+05)
 number of electron     650.0000000 magnetization      75.0000000
 augmentation part      650.0000000 magnetization      75.0000000

 DIPCOR: dipole corrections for dipol
 direction  3 min pos     1,
 dipolmoment           0.000000      0.000000     -0.000000 electrons x Angstroem
 Tr[quadrupol]    -27382.988860

 energy correction for charged system         0.000000 eV
 dipol+quadrupol energy correction           -0.000000 eV
 added-field ion interaction         -0.000000 eV  (added to PSCEN)


 Free energy of the ion-electron system (eV)
  ---------------------------------------------------
  alpha Z        PSCENC =       589.35950859
  Ewald energy   TEWEN  =    184721.13813832
  -Hartree energ DENC   =   -236907.54400296
  -exchange      EXHF   =         0.00000000
  -V(xc)+E(xc)   XCENC  =      2291.11298948
  PAW double counting   =     48353.43607707   -47698.82770368
  entropy T*S    EENTRO =        -0.06066920
  eigenvalues    EBANDS =     -5787.50823988
  atomic energy  EATOM  =     60545.79780431
  Solvation  Ediel_sol  =         0.00000000
  ---------------------------------------------------
  free energy    TOTEN  =      6106.90390206 eV

  energy without entropy =     6106.96457126  energy(sigma->0) =     6106.93423666


--------------------------------------------------------------------------------------------------------




--------------------------------------- Iteration      1(   2)  ---------------------------------------


     EDDAV:  cpu time     25.7299: real time     25.7657
       DOS:  cpu time      0.0032: real time      0.0061
    --------------------------------------------
      LOOP:  cpu time     25.7332: real time     25.7718

 eigenvalue-minimisations  :  7120
 total energy-change (2. order) :-0.5840410E+04  (-0.5650486E+04)
 number of electron     650.0000000 magnetization      75.0000000
 augmentation part      650.0000000 magnetization      75.0000000

 DIPCOR: dipole corrections for dipol
 direction  3 min pos     1,
 dipolmoment           0.000000      0.000000     -0.000000 electrons x Angstroem
 Tr[quadrupol]    -27382.988860

 energy correction for charged system         0.000000 eV
 dipol+quadrupol energy correction           -0.000000 eV
 added-field ion interaction         -0.000000 eV  (added to PSCEN)


 Free energy of the ion-electron system (eV)
  ---------------------------------------------------
  alpha Z        PSCENC =       589.35950859
  Ewald energy   TEWEN  =    184721.13813832
  -Hartree energ DENC   =   -236907.54400296
  -exchange      EXHF   =         0.00000000
  -V(xc)+E(xc)   XCENC  =      2291.11298948
  PAW double counting   =     48353.43607707   -47698.82770368
  entropy T*S    EENTRO =        -0.00000000
  eigenvalues    EBANDS =    -11627.97843484
  atomic energy  EATOM  =     60545.79780431
  Solvation  Ediel_sol  =         0.00000000
  ---------------------------------------------------
  free energy    TOTEN  =       266.49437630 eV

  energy without entropy =      266.49437630  energy(sigma->0) =      266.49437630


--------------------------------------------------------------------------------------------------------




--------------------------------------- Iteration      1(   3)  ---------------------------------------


     EDDAV:  cpu time     22.7063: real time     22.7246
       DOS:  cpu time      0.0030: real time      0.0043
    --------------------------------------------
      LOOP:  cpu time     22.7093: real time     22.7289

 eigenvalue-minimisations  :  6184
 total energy-change (2. order) :-0.6665277E+03  (-0.6584984E+03)
 number of electron     650.0000000 magnetization      75.0000000
 augmentation part      650.0000000 magnetization      75.0000000

 DIPCOR: dipole corrections for dipol
 direction  3 min pos     1,
 dipolmoment           0.000000      0.000000     -0.000000 electrons x Angstroem
 Tr[quadrupol]    -27382.988860

 energy correction for charged system         0.000000 eV
 dipol+quadrupol energy correction           -0.000000 eV
 added-field ion interaction         -0.000000 eV  (added to PSCEN)


 Free energy of the ion-electron system (eV)
  ---------------------------------------------------
  alpha Z        PSCENC =       589.35950859
  Ewald energy   TEWEN  =    184721.13813832
  -Hartree energ DENC   =   -236907.54400296
  -exchange      EXHF   =         0.00000000
  -V(xc)+E(xc)   XCENC  =      2291.11298948
  PAW double counting   =     48353.43607707   -47698.82770368
  entropy T*S    EENTRO =        -0.00000000
  eigenvalues    EBANDS =    -12294.50615945
  atomic energy  EATOM  =     60545.79780431
  Solvation  Ediel_sol  =         0.00000000
  ---------------------------------------------------
  free energy    TOTEN  =      -400.03334831 eV

  energy without entropy =     -400.03334831  energy(sigma->0) =     -400.03334831


--------------------------------------------------------------------------------------------------------




--------------------------------------- Iteration      1(   4)  ---------------------------------------


     EDDAV:  cpu time     22.5230: real time     22.5461
       DOS:  cpu time      0.0029: real time      0.0029
    --------------------------------------------
      LOOP:  cpu time     22.5259: real time     22.5489

 eigenvalue-minimisations  :  6152
 total energy-change (2. order) :-0.2185498E+02  (-0.2156592E+02)
 number of electron     650.0000000 magnetization      75.0000000
 augmentation part      650.0000000 magnetization      75.0000000

 DIPCOR: dipole corrections for dipol
 direction  3 min pos     1,
 dipolmoment           0.000000      0.000000     -0.000000 electrons x Angstroem
 Tr[quadrupol]    -27382.988860

 energy correction for charged system         0.000000 eV
 dipol+quadrupol energy correction           -0.000000 eV
 added-field ion interaction         -0.000000 eV  (added to PSCEN)


 Free energy of the ion-electron system (eV)
  ---------------------------------------------------
  alpha Z        PSCENC =       589.35950859
  Ewald energy   TEWEN  =    184721.13813832
  -Hartree energ DENC   =   -236907.54400296
  -exchange      EXHF   =         0.00000000
  -V(xc)+E(xc)   XCENC  =      2291.11298948
  PAW double counting   =     48353.43607707   -47698.82770368
  entropy T*S    EENTRO =        -0.00000000
  eigenvalues    EBANDS =    -12316.36113595
  atomic energy  EATOM  =     60545.79780431
  Solvation  Ediel_sol  =         0.00000000
  ---------------------------------------------------
  free energy    TOTEN  =      -421.88832480 eV

  energy without entropy =     -421.88832480  energy(sigma->0) =     -421.88832480


--------------------------------------------------------------------------------------------------------




--------------------------------------- Iteration      1(   5)  ---------------------------------------


     EDDAV:  cpu time     24.9278: real time     24.9539
       DOS:  cpu time      0.0034: real time      0.0034
    CHARGE:  cpu time      2.7970: real time      2.7993
    MIXING:  cpu time      0.0447: real time      0.0447
    --------------------------------------------
      LOOP:  cpu time     27.7730: real time     27.8013

 eigenvalue-minimisations  :  6856
 total energy-change (2. order) :-0.7251134E+00  (-0.7192787E+00)
 number of electron     650.0000242 magnetization      66.7587618
 augmentation part        9.2559346 magnetization      66.4013304

 DIPCOR: dipole corrections for dipol
 direction  3 min pos     1,
 dipolmoment           0.000000      0.000000     -0.000000 electrons x Angstroem
 Tr[quadrupol]    -27382.988860

 energy correction for charged system         0.000000 eV
 dipol+quadrupol energy correction           -0.000000 eV
 added-field ion interaction         -0.000000 eV  (added to PSCEN)


 Broyden mixing:
  rms(total) = 0.12324E+02    rms(broyden)= 0.12324E+02
  rms(prec ) = 0.12430E+02
  weight for this iteration     100.00

 Free energy of the ion-electron system (eV)
  ---------------------------------------------------
  alpha Z        PSCENC =       589.35950859
  Ewald energy   TEWEN  =    184721.13813832
  -Hartree energ DENC   =   -236907.54400296
  -exchange      EXHF   =         0.00000000
  -V(xc)+E(xc)   XCENC  =      2291.11298948
  PAW double counting   =     48353.43607707   -47698.82770368
  entropy T*S    EENTRO =        -0.00000000
  eigenvalues    EBANDS =    -12317.08624936
  atomic energy  EATOM  =     60545.79780431
  Solvation  Ediel_sol  =         0.00000000
  ---------------------------------------------------
  free energy    TOTEN  =      -422.61343822 eV

  energy without entropy =     -422.61343822  energy(sigma->0) =     -422.61343822


--------------------------------------------------------------------------------------------------------




--------------------------------------- Iteration      1(   6)  ---------------------------------------


    POTLOK:  cpu time      6.5302: real time      6.5358
    SETDIJ:  cpu time      2.8351: real time      2.8372
     EDDAV:  cpu time     21.4594: real time     21.4930
       DOS:  cpu time      0.0059: real time      0.0059
    CHARGE:  cpu time      2.7810: real time      2.7830
    MIXING:  cpu time      0.0381: real time      0.0432
    --------------------------------------------
      LOOP:  cpu time     33.6497: real time     33.6982

 eigenvalue-minimisations  :  5728
 total energy-change (2. order) : 0.3369807E+02  (-0.1973590E+02)
 number of electron     650.0000241 magnetization      59.0997742
 augmentation part       24.5716473 magnetization      58.3411240

 DIPCOR: dipole corrections for dipol
 direction  3 min pos     1,
 dipolmoment           0.000000      0.000000     -0.001741 electrons x Angstroem
 Tr[quadrupol]    -27381.107737

 energy correction for charged system         0.000000 eV
 dipol+quadrupol energy correction           -0.000000 eV
 added-field ion interaction         -0.000003 eV  (added to PSCEN)


 Broyden mixing:
  rms(total) = 0.49929E+01    rms(broyden)= 0.49929E+01
  rms(prec ) = 0.51101E+01
  weight for this iteration     100.00

 eigenvalues of (default mixing * dielectric matrix)
  average eigenvalue GAMMA=   0.9993
  0.9993

 Free energy of the ion-electron system (eV)
  ---------------------------------------------------
  alpha Z        PSCENC =       589.35950565
  Ewald energy   TEWEN  =    184721.13813832
  -Hartree energ DENC   =   -236179.60245139
  -exchange      EXHF   =         0.00000000
  -V(xc)+E(xc)   XCENC  =      2276.80096692
  PAW double counting   =     57061.04809675   -56490.76183692
  entropy T*S    EENTRO =        -0.00000000
  eigenvalues    EBANDS =    -12912.69559125
  atomic energy  EATOM  =     60545.79780431
  Solvation  Ediel_sol  =         0.00000000
  ---------------------------------------------------
  free energy    TOTEN  =      -388.91536761 eV

  energy without entropy =     -388.91536761  energy(sigma->0) =     -388.91536761


--------------------------------------------------------------------------------------------------------




--------------------------------------- Iteration      1(   7)  ---------------------------------------


    POTLOK:  cpu time      6.5339: real time      6.5463
    SETDIJ:  cpu time      2.8145: real time      2.8167
     EDDAV:  cpu time     21.3503: real time     21.3670
       DOS:  cpu time      0.0029: real time      0.0029
    CHARGE:  cpu time      2.7617: real time      2.7637
    MIXING:  cpu time      0.0510: real time      0.0523
    --------------------------------------------
      LOOP:  cpu time     33.5143: real time     33.5489

 eigenvalue-minimisations  :  5708
 total energy-change (2. order) :-0.1445431E+01  (-0.6619959E+01)
 number of electron     650.0000241 magnetization      50.5847231
 augmentation part       16.0117302 magnetization      50.4112052

 DIPCOR: dipole corrections for dipol
 direction  3 min pos     1,
 dipolmoment           0.000000      0.000000      0.009569 electrons x Angstroem
 Tr[quadrupol]    -27389.421567

 energy correction for charged system         0.000000 eV
 dipol+quadrupol energy correction           -0.000002 eV
 added-field ion interaction          0.000016 eV  (added to PSCEN)


 Broyden mixing:
  rms(total) = 0.34418E+01    rms(broyden)= 0.34418E+01
  rms(prec ) = 0.35113E+01
  weight for this iteration     100.00

 eigenvalues of (default mixing * dielectric matrix)
  average eigenvalue GAMMA=   1.0402
  1.4965  0.5838

 Free energy of the ion-electron system (eV)
  ---------------------------------------------------
  alpha Z        PSCENC =       589.35952279
  Ewald energy   TEWEN  =    184721.13813832
  -Hartree energ DENC   =   -236850.09639526
  -exchange      EXHF   =         0.00000000
  -V(xc)+E(xc)   XCENC  =      2283.50625153
  PAW double counting   =     64474.14880643   -63883.58076703
  entropy T*S    EENTRO =        -0.00000000
  eigenvalues    EBANDS =    -12270.63415947
  atomic energy  EATOM  =     60545.79780431
  Solvation  Ediel_sol  =         0.00000000
  ---------------------------------------------------
  free energy    TOTEN  =      -390.36079839 eV

  energy without entropy =     -390.36079839  energy(sigma->0) =     -390.36079839


--------------------------------------------------------------------------------------------------------




--------------------------------------- Iteration      1(   8)  ---------------------------------------


    POTLOK:  cpu time      6.4934: real time      6.4986
    SETDIJ:  cpu time      2.8328: real time      2.8353
     EDDAV:  cpu time     21.4232: real time     21.4390
       DOS:  cpu time      0.0030: real time      0.0030
    CHARGE:  cpu time      2.7751: real time      2.7772
    MIXING:  cpu time      0.0335: real time      0.0335
    --------------------------------------------
      LOOP:  cpu time     33.5610: real time     33.5866

 eigenvalue-minimisations  :  5648
 total energy-change (2. order) : 0.1120931E+01  (-0.1110830E+01)
 number of electron     650.0000241 magnetization      40.7068716
 augmentation part       19.1831486 magnetization      40.5273531

 DIPCOR: dipole corrections for dipol
 direction  3 min pos     1,
 dipolmoment           0.000000      0.000000     -0.001323 electrons x Angstroem
 Tr[quadrupol]    -27389.067422

 energy correction for charged system         0.000000 eV
 dipol+quadrupol energy correction           -0.000000 eV
 added-field ion interaction         -0.000002 eV  (added to PSCEN)


 Broyden mixing:
  rms(total) = 0.16378E+01    rms(broyden)= 0.16378E+01
  rms(prec ) = 0.16412E+01
  weight for this iteration     100.00

 eigenvalues of (default mixing * dielectric matrix)
  average eigenvalue GAMMA=   1.2522
  2.2722  0.8591  0.6254

 Free energy of the ion-electron system (eV)
  ---------------------------------------------------
  alpha Z        PSCENC =       589.35950637
  Ewald energy   TEWEN  =    184721.13813832
  -Hartree energ DENC   =   -236643.63185837
  -exchange      EXHF   =         0.00000000
  -V(xc)+E(xc)   XCENC  =      2278.31415554
  PAW double counting   =     70140.02491941   -69576.82196678
  entropy T*S    EENTRO =        -0.00000000
  eigenvalues    EBANDS =    -12443.42056619
  atomic energy  EATOM  =     60545.79780431
  Solvation  Ediel_sol  =         0.00000000
  ---------------------------------------------------
  free energy    TOTEN  =      -389.23986740 eV

  energy without entropy =     -389.23986740  energy(sigma->0) =     -389.23986740


--------------------------------------------------------------------------------------------------------




--------------------------------------- Iteration      1(   9)  ---------------------------------------


    POTLOK:  cpu time      6.5126: real time      6.5244
    SETDIJ:  cpu time      2.7977: real time      2.7998
     EDDAV:  cpu time     21.8680: real time     21.8843
       DOS:  cpu time      0.0037: real time      0.0060
    CHARGE:  cpu time      2.7685: real time      2.7706
    MIXING:  cpu time      0.0436: real time      0.0444
    --------------------------------------------
      LOOP:  cpu time     33.9940: real time     34.0295

 eigenvalue-minimisations  :  5920
 total energy-change (2. order) :-0.3371663E+01  (-0.2932493E+00)
 number of electron     650.0000241 magnetization      33.0674976
 augmentation part       20.4684237 magnetization      32.8398961

 DIPCOR: dipole corrections for dipol
 direction  3 min pos     1,
 dipolmoment           0.000000      0.000000      0.000674 electrons x Angstroem
 Tr[quadrupol]    -27390.777457

 energy correction for charged system         0.000000 eV
 dipol+quadrupol energy correction           -0.000000 eV
 added-field ion interaction          0.000001 eV  (added to PSCEN)


 Broyden mixing:
  rms(total) = 0.11173E+01    rms(broyden)= 0.11173E+01
  rms(prec ) = 0.11265E+01
  weight for this iteration     100.00

 eigenvalues of (default mixing * dielectric matrix)
  average eigenvalue GAMMA=   1.2238
  2.3657  1.2000  0.6647  0.6647

 Free energy of the ion-electron system (eV)
  ---------------------------------------------------
  alpha Z        PSCENC =       589.35950970
  Ewald energy   TEWEN  =    184721.13813832
  -Hartree energ DENC   =   -236661.12917979
  -exchange      EXHF   =         0.00000000
  -V(xc)+E(xc)   XCENC  =      2276.31776869
  PAW double counting   =     74082.34186456   -73529.36945638
  entropy T*S    EENTRO =        -0.00000000
  eigenvalues    EBANDS =    -12417.06797938
  atomic energy  EATOM  =     60545.79780431
  Solvation  Ediel_sol  =         0.00000000
  ---------------------------------------------------
  free energy    TOTEN  =      -392.61152997 eV

  energy without entropy =     -392.61152997  energy(sigma->0) =     -392.61152997


--------------------------------------------------------------------------------------------------------




--------------------------------------- Iteration      1(  10)  ---------------------------------------


    POTLOK:  cpu time      6.5636: real time      6.5751
    SETDIJ:  cpu time      2.8948: real time      2.8966
     EDDAV:  cpu time     21.5487: real time     21.5654
       DOS:  cpu time      0.0030: real time      0.0030
    CHARGE:  cpu time      2.7598: real time      2.7626
    MIXING:  cpu time      0.0485: real time      0.0485
    --------------------------------------------
      LOOP:  cpu time     33.8183: real time     33.8511

 eigenvalue-minimisations  :  5756
 total energy-change (2. order) :-0.2664843E+01  (-0.7064832E-01)
 number of electron     650.0000241 magnetization      19.7672679
 augmentation part       19.4896002 magnetization      19.5765289

 DIPCOR: dipole corrections for dipol
 direction  3 min pos     1,
 dipolmoment           0.000000      0.000000      0.003264 electrons x Angstroem
 Tr[quadrupol]    -27392.088032

 energy correction for charged system         0.000000 eV
 dipol+quadrupol energy correction           -0.000000 eV
 added-field ion interaction          0.000005 eV  (added to PSCEN)


 Broyden mixing:
  rms(total) = 0.79043E+00    rms(broyden)= 0.79043E+00
  rms(prec ) = 0.79116E+00
  weight for this iteration     100.00

 eigenvalues of (default mixing * dielectric matrix)
  average eigenvalue GAMMA=   1.3180
  2.6015  1.8067  0.8668  0.6576  0.6576

 Free energy of the ion-electron system (eV)
  ---------------------------------------------------
  alpha Z        PSCENC =       589.35951381
  Ewald energy   TEWEN  =    184721.13813832
  -Hartree energ DENC   =   -236747.45744193
  -exchange      EXHF   =         0.00000000
  -V(xc)+E(xc)   XCENC  =      2275.98200984
  PAW double counting   =     73924.28887016   -73366.73201852
  entropy T*S    EENTRO =        -0.00000000
  eigenvalues    EBANDS =    -12337.65324909
  atomic energy  EATOM  =     60545.79780431
  Solvation  Ediel_sol  =         0.00000000
  ---------------------------------------------------
  free energy    TOTEN  =      -395.27637311 eV

  energy without entropy =     -395.27637311  energy(sigma->0) =     -395.27637311


--------------------------------------------------------------------------------------------------------




--------------------------------------- Iteration      1(  11)  ---------------------------------------


    POTLOK:  cpu time      6.5356: real time      6.5412
    SETDIJ:  cpu time      2.7924: real time      2.7945
     EDDAV:  cpu time     21.6305: real time     21.6468
       DOS:  cpu time      0.0029: real time      0.0029
    CHARGE:  cpu time      2.7756: real time      2.7771
    MIXING:  cpu time      0.0327: real time      0.0327
    --------------------------------------------
      LOOP:  cpu time     33.7698: real time     33.7953

 eigenvalue-minimisations  :  5824
 total energy-change (2. order) :-0.3645079E+01  (-0.6157405E-01)
 number of electron     650.0000241 magnetization       6.7711617
 augmentation part       19.4380257 magnetization       6.6800283

 DIPCOR: dipole corrections for dipol
 direction  3 min pos     1,
 dipolmoment           0.000000      0.000000      0.001110 electrons x Angstroem
 Tr[quadrupol]    -27393.582054

 energy correction for charged system         0.000000 eV
 dipol+quadrupol energy correction           -0.000000 eV
 added-field ion interaction          0.000002 eV  (added to PSCEN)


 Broyden mixing:
  rms(total) = 0.56591E+00    rms(broyden)= 0.56591E+00
  rms(prec ) = 0.56694E+00
  weight for this iteration     100.00

 eigenvalues of (default mixing * dielectric matrix)
  average eigenvalue GAMMA=   1.7409
  5.2092  2.1868  1.0063  0.7219  0.7219  0.5994

 Free energy of the ion-electron system (eV)
  ---------------------------------------------------
  alpha Z        PSCENC =       589.35951041
  Ewald energy   TEWEN  =    184721.13813832
  -Hartree energ DENC   =   -236800.48469175
  -exchange      EXHF   =         0.00000000
  -V(xc)+E(xc)   XCENC  =      2274.14342234
  PAW double counting   =     73909.17771668   -73350.71291264
  entropy T*S    EENTRO =        -0.00000000
  eigenvalues    EBANDS =    -12287.34044027
  atomic energy  EATOM  =     60545.79780431
  Solvation  Ediel_sol  =         0.00000000
  ---------------------------------------------------
  free energy    TOTEN  =      -398.92145261 eV

  energy without entropy =     -398.92145261  energy(sigma->0) =     -398.92145261


--------------------------------------------------------------------------------------------------------




--------------------------------------- Iteration      1(  12)  ---------------------------------------


    POTLOK:  cpu time      6.5546: real time      6.5652
    SETDIJ:  cpu time      2.8213: real time      2.8242
     EDDAV:  cpu time     21.8332: real time     21.8471
       DOS:  cpu time      0.0031: real time      0.0031
    CHARGE:  cpu time      2.7731: real time      2.7744
    MIXING:  cpu time      0.0447: real time      0.0447
    --------------------------------------------
      LOOP:  cpu time     34.0300: real time     34.0586

 eigenvalue-minimisations  :  5880
 total energy-change (2. order) :-0.1922501E+01  (-0.5319971E-01)
 number of electron     650.0000241 magnetization       2.4769706
 augmentation part       19.4220277 magnetization       2.4516181

 DIPCOR: dipole corrections for dipol
 direction  3 min pos     1,
 dipolmoment           0.000000      0.000000      0.002087 electrons x Angstroem
 Tr[quadrupol]    -27395.164475

 energy correction for charged system         0.000000 eV
 dipol+quadrupol energy correction           -0.000000 eV
 added-field ion interaction          0.000003 eV  (added to PSCEN)


 Broyden mixing:
  rms(total) = 0.36962E+00    rms(broyden)= 0.36962E+00
  rms(prec ) = 0.37231E+00
  weight for this iteration     100.00

 eigenvalues of (default mixing * dielectric matrix)
  average eigenvalue GAMMA=   1.9040
  6.5324  2.4671  1.5333  0.8173  0.7169  0.6473  0.6138

 Free energy of the ion-electron system (eV)
  ---------------------------------------------------
  alpha Z        PSCENC =       589.35951197
  Ewald energy   TEWEN  =    184721.13813832
  -Hartree energ DENC   =   -236860.52184700
  -exchange      EXHF   =         0.00000000
  -V(xc)+E(xc)   XCENC  =      2273.11122386
  PAW double counting   =     73910.15871176   -73351.42706745
  entropy T*S    EENTRO =        -0.00000000
  eigenvalues    EBANDS =    -12228.46042960
  atomic energy  EATOM  =     60545.79780431
  Solvation  Ediel_sol  =         0.00000000
  ---------------------------------------------------
  free energy    TOTEN  =      -400.84395383 eV

  energy without entropy =     -400.84395383  energy(sigma->0) =     -400.84395383


--------------------------------------------------------------------------------------------------------




--------------------------------------- Iteration      1(  13)  ---------------------------------------


    POTLOK:  cpu time      6.5387: real time      6.5494
    SETDIJ:  cpu time      2.8318: real time      2.8349
     EDDAV:  cpu time     21.5782: real time     21.5910
       DOS:  cpu time      0.0030: real time      0.0030
    CHARGE:  cpu time      2.7697: real time      2.7711
    MIXING:  cpu time      0.0362: real time      0.0362
    --------------------------------------------
      LOOP:  cpu time     33.7576: real time     33.7857

 eigenvalue-minimisations  :  5720
 total energy-change (2. order) :-0.4094021E+00  (-0.1455557E-01)
 number of electron     650.0000241 magnetization       0.4983292
 augmentation part       19.6658797 magnetization       0.4898364

 DIPCOR: dipole corrections for dipol
 direction  3 min pos     1,
 dipolmoment           0.000000      0.000000      0.002386 electrons x Angstroem
 Tr[quadrupol]    -27395.271462

 energy correction for charged system         0.000000 eV
 dipol+quadrupol energy correction           -0.000000 eV
 added-field ion interaction          0.000004 eV  (added to PSCEN)


 Broyden mixing:
  rms(total) = 0.12359E+00    rms(broyden)= 0.12359E+00
  rms(prec ) = 0.12431E+00
  weight for this iteration     100.00

 eigenvalues of (default mixing * dielectric matrix)
  average eigenvalue GAMMA=   2.0864
  8.4271  2.5992  1.7818  1.1314  0.7856  0.6776  0.6776  0.6110

 Free energy of the ion-electron system (eV)
  ---------------------------------------------------
  alpha Z        PSCENC =       589.35951244
  Ewald energy   TEWEN  =    184721.13813832
  -Hartree energ DENC   =   -236858.88998481
  -exchange      EXHF   =         0.00000000
  -V(xc)+E(xc)   XCENC  =      2272.26399989
  PAW double counting   =     73080.13792762   -72521.80232780
  entropy T*S    EENTRO =        -0.00000000
  eigenvalues    EBANDS =    -12229.25842590
  atomic energy  EATOM  =     60545.79780431
  Solvation  Ediel_sol  =         0.00000000
  ---------------------------------------------------
  free energy    TOTEN  =      -401.25335593 eV

  energy without entropy =     -401.25335593  energy(sigma->0) =     -401.25335593


--------------------------------------------------------------------------------------------------------




--------------------------------------- Iteration      1(  14)  ---------------------------------------


    POTLOK:  cpu time      6.5350: real time      6.5464
    SETDIJ:  cpu time      2.8094: real time      2.8114
     EDDAV:  cpu time     19.7713: real time     19.7840
       DOS:  cpu time      0.0036: real time      0.0036
    CHARGE:  cpu time      2.7693: real time      2.7707
    MIXING:  cpu time      0.0391: real time      0.0391
    --------------------------------------------
      LOOP:  cpu time     31.9276: real time     31.9551

 eigenvalue-minimisations  :  5224
 total energy-change (2. order) :-0.4343005E-01  (-0.4037068E-02)
 number of electron     650.0000241 magnetization       0.1554092
 augmentation part       19.5999173 magnetization       0.1496622

 DIPCOR: dipole corrections for dipol
 direction  3 min pos     1,
 dipolmoment           0.000000      0.000000      0.002101 electrons x Angstroem
 Tr[quadrupol]    -27395.240608

 energy correction for charged system         0.000000 eV
 dipol+quadrupol energy correction           -0.000000 eV
 added-field ion interaction          0.000003 eV  (added to PSCEN)


 Broyden mixing:
  rms(total) = 0.61530E-01    rms(broyden)= 0.61530E-01
  rms(prec ) = 0.63698E-01
  weight for this iteration     100.00

 eigenvalues of (default mixing * dielectric matrix)
  average eigenvalue GAMMA=   2.0360
  8.9698  2.2412  2.2412  1.2020  1.0060  0.7600  0.6429  0.6429  0.6175

 Free energy of the ion-electron system (eV)
  ---------------------------------------------------
  alpha Z        PSCENC =       589.35951199
  Ewald energy   TEWEN  =    184721.13813832
  -Hartree energ DENC   =   -236861.96103430
  -exchange      EXHF   =         0.00000000
  -V(xc)+E(xc)   XCENC  =      2272.26533312
  PAW double counting   =     73188.71170942   -72630.55994823
  entropy T*S    EENTRO =        -0.00000000
  eigenvalues    EBANDS =    -12226.04830061
  atomic energy  EATOM  =     60545.79780431
  Solvation  Ediel_sol  =         0.00000000
  ---------------------------------------------------
  free energy    TOTEN  =      -401.29678599 eV

  energy without entropy =     -401.29678599  energy(sigma->0) =     -401.29678599


--------------------------------------------------------------------------------------------------------




--------------------------------------- Iteration      1(  15)  ---------------------------------------


    POTLOK:  cpu time      6.5223: real time      6.5270
    SETDIJ:  cpu time      2.8506: real time      2.8527
     EDDAV:  cpu time     22.1421: real time     22.1555
       DOS:  cpu time      0.0028: real time      0.0028
    CHARGE:  cpu time      2.7729: real time      2.7741
    MIXING:  cpu time      0.0476: real time      0.0476
    --------------------------------------------
      LOOP:  cpu time     34.3382: real time     34.3596

 eigenvalue-minimisations  :  5976
 total energy-change (2. order) : 0.3854704E-02  (-0.6875998E-03)
 number of electron     650.0000241 magnetization       0.0829183
 augmentation part       19.6749311 magnetization       0.0818129

 DIPCOR: dipole corrections for dipol
 direction  3 min pos     1,
 dipolmoment           0.000000      0.000000      0.001973 electrons x Angstroem
 Tr[quadrupol]    -27395.116974

 energy correction for charged system         0.000000 eV
 dipol+quadrupol energy correction           -0.000000 eV
 added-field ion interaction          0.000003 eV  (added to PSCEN)


 Broyden mixing:
  rms(total) = 0.22293E-01    rms(broyden)= 0.22293E-01
  rms(prec ) = 0.23484E-01
  weight for this iteration     100.00

 eigenvalues of (default mixing * dielectric matrix)
  average eigenvalue GAMMA=   1.9859
  9.0340  2.3639  2.3639  1.5611  1.0265  0.8681  0.7081  0.7081  0.6124  0.6124

 Free energy of the ion-electron system (eV)
  ---------------------------------------------------
  alpha Z        PSCENC =       589.35951179
  Ewald energy   TEWEN  =    184721.13813832
  -Hartree energ DENC   =   -236854.34333082
  -exchange      EXHF   =         0.00000000
  -V(xc)+E(xc)   XCENC  =      2272.18148827
  PAW double counting   =     73367.24896751   -72809.64978883
  entropy T*S    EENTRO =        -0.00000000
  eigenvalues    EBANDS =    -12233.02572182
  atomic energy  EATOM  =     60545.79780431
  Solvation  Ediel_sol  =         0.00000000
  ---------------------------------------------------
  free energy    TOTEN  =      -401.29293128 eV

  energy without entropy =     -401.29293128  energy(sigma->0) =     -401.29293128


--------------------------------------------------------------------------------------------------------




--------------------------------------- Iteration      1(  16)  ---------------------------------------


    POTLOK:  cpu time      6.5592: real time      6.5641
    SETDIJ:  cpu time      2.8837: real time      2.8862
     EDDAV:  cpu time     19.7512: real time     19.7637
       DOS:  cpu time      0.0054: real time      0.0054
    CHARGE:  cpu time      2.7700: real time      2.7716
    MIXING:  cpu time      0.0543: real time      0.0543
    --------------------------------------------
      LOOP:  cpu time     32.0238: real time     32.0453

 eigenvalue-minimisations  :  5196
 total energy-change (2. order) : 0.2179375E-02  (-0.8125091E-03)
 number of electron     650.0000241 magnetization       0.0623753
 augmentation part       19.6439236 magnetization       0.0623493

 DIPCOR: dipole corrections for dipol
 direction  3 min pos     1,
 dipolmoment           0.000000      0.000000      0.002197 electrons x Angstroem
 Tr[quadrupol]    -27394.909889

 energy correction for charged system         0.000000 eV
 dipol+quadrupol energy correction           -0.000000 eV
[...]
  285                    dfftw_execute                         8.125239            17334   9
  286                    map_forward                           8.964252            11556   9
  287                      map_gather                            1.389256           5778  10
  288                      m_alltoallv_z                         3.606182           5778  10
  289                      map_scatter                           1.830661           5778  10
  290            rpromu                                3.588336                     1458   5
  291              crrexp_mul_wave                       1.105584                 433350   6
  292              rpromu_gemm                           1.153327                 109350   6
  293              m_sumb_d                              0.496889                   5778   6
  294          m_sumb_d                              0.340585                         30   4
  295        m_sumb_d                              0.019743                           21   3
  296        fft3d_mpi                             2.685004                          246   3
  297          fftbrc_mpi                            2.554448                        246   4
  298            fftbas_plan_mpi                       2.553624                      246   5
  299              dfftw_execute                         0.606104                    738   6
  300              map_forward                           0.812275                    240   6
  301                map_gather                            0.206667                  120   7
  302                m_alltoallv_z                         0.523248                  120   7
  303                map_scatter                           0.079921                  120   7
  304              map_backward                          0.985151                    252   6
  305                map_gather                            0.095420                  126   7
  306                m_alltoallv_z                         0.510525                  126   7
  307                map_scatter                           0.376684                  126   7
  308        forhar                                1.471757                            6   3
  309          m_sumb_d                              0.015521                          6   4
  310        strehar                               0.035513                            3   3
  311          m_sumb_d                              0.001948                          3   4
  312        chggra                                0.141616                            3   3
  313          fft3d_mpi                             0.099547                          9   4
  314            fftbrc_mpi                            0.094777                        9   5
  315              fftbas_plan_mpi                       0.094754                      9   6
  316                dfftw_execute                         0.022553                   27   7
  317                map_backward                          0.024898                    6   7
  318                  map_gather                            0.002496                  3   8
  319                  m_alltoallv_z                         0.010960                  3   8
  320                  map_scatter                           0.011370                  3   8
  321                map_forward                           0.041897                   12   7
  322                  map_gather                            0.017317                  6   8
  323                  m_alltoallv_z                         0.020123                  6   8
  324                  map_scatter                           0.004337                  6   8
  325          m_sumb_d                              0.000364                          6   4
  326          pothar                                0.009363                          3   4
  327            m_sumb_d                              0.001427                        3   5
  328        brmix                                 0.197388                            3   3
  329          m_sumb_d                              0.007532                         18   4
  330          brpre                                 0.000934                          6   4
  331          setg0                                 0.019388                          3   4
  332          broyd                                 0.062962                          3   4
  333            m_sumb_d                              0.009743                       60   5
  334            brget                                 0.013915                      250   5
  335            brsav                                 0.005252                       55   5
  336          m_bcast_z                             0.078282                          3   4
  337          m_bcast_d                             0.000552                          3   4
  338        m_bcast_d                             0.009129                            6   3
  339      potlok                               19.363968                              3   2
  340        fft3d_mpi                             2.619597                          258   3
  341          fftbrc_mpi                            2.479166                        258   4
  342            fftbas_plan_mpi                       2.478433                      258   5
  343              dfftw_execute                         0.628056                    774   6
  344              map_forward                           0.747038                    264   6
  345                map_gather                            0.225394                  138   7
  346                m_alltoallv_z                         0.432162                  138   7
  347                map_scatter                           0.086892                  138   7
  348              map_backward                          0.947477                    252   6
  349                map_gather                            0.097190                  126   7
  350                m_alltoallv_z                         0.463853                  126   7
  351                map_scatter                           0.383812                  126   7
  352        m_sumb_d                              0.011955                           24   3
  353        fewald                                0.004711                            6   3
  354          rsp                                   0.004023                          6   4
  355          rcp                                   0.000610                          6   4
  356        pothar                                0.010253                            3   3
  357          m_sumb_d                              0.004928                          3   4
  358        m_bcast_d                             0.013280                            6   3
  359      potlok_metagga                        0.000003                              3   2
  360      set_dd_magatom                        0.000003                              3   2
  361      set_dd_paw                            8.373085                              3   2
  362        set_rsgf_all                          0.000005                            3   3
  363        m_sumb_d                              8.372115                           24   3
  364      wavpre_noio                           0.337407                              2   2
  365        stufak                                0.298982                            2   3
  366      densta                                0.001618                              1   2
  367        m_sumb_d                              0.000928                           10   3
 
 Flat profile
 ============
 
             routine name                   CPU           calls
 ---------------------------------------------------------------
 ggemm                                 295.310905       19974
 potlok                                252.124521          45
 m_sumb_d                              161.243468      176780
 dfftw_execute                         145.096222      295980
 orth1                                  86.684668       45102
 total_time                             84.240573           1
 eddav                                  83.196824          46
 set_charge                             77.540475          42
 m_alltoallv_z                          71.835070       98834
 fftbas_plan_mpi                        50.761354       98660
 m_alltoall_d                           47.018772      220660
 map_scatter                            37.471542       98834
 fftwav_mpi                             37.229242       64706
 map_gather                             33.092267       98834
 vhamil                                 25.488028       29658
 map_forward                            23.110067      133630
 force_and_stress                       16.727805           3
 lincom                                 13.829547          98
 m_bcast_z                              13.477508       18311
 lapack                                 10.019468       15006
 crrexp_mul_work_add                     8.108103     2224350
 gemm                                    7.727290     1098900
 rpromu_gemm                             7.052551      891150
 crrexp_mul_wave                         5.455096     2112000
 eccp                                    5.223338        9844
 w1_copy                                 5.193348       88974
 racc0mu                                 5.174216       14652
 rpromu                                  4.637119       11882
 redis_pw                                4.347850       79326
 pw_charge                               3.991895        6888
 fftext_mpi                              3.329088       29658
 fft3d_mpi                               2.608970       98660
 kinhamil                                2.324871       29658
 setdij_                                 2.268008         124
 augmentation_charge                     1.843912          42
 apply_precond                           1.796779       19814
 m_bcast_d                               1.670516       30163
 forhar                                  1.456237           6
 redis_proj                              1.214745       99146
 setup_precond                           1.164039        9844
 overl                                   1.073030       49478
 elmin                                   0.863878           3
 forloc                                  0.721897           3
 map_backward                            0.616705       63690
 overl1                                  0.507270       29658
 stufak                                  0.449659           3
 rspher_all                              0.444257          40
 brmix                                   0.433898          42
 hamiltmu                                0.409195       15006
 phaser                                  0.401576         131
 newband                                 0.380181       15098
 broyd                                   0.352464          42
 setg0                                   0.289348          48
 fftbas_mpi                              0.283642       94364
 soft_charge                             0.251187          42
 inisym                                  0.208625           1
 raccmu_                                 0.190827       15006
 racc0                                   0.172308         354
 brget                                   0.156355        2625
 rpro1                                   0.137247         262
 choleski                                0.127546           6
 pothar                                  0.084980          48
 brsav                                   0.081823         659
 w1_projall                              0.069195       10038
 rsp                                     0.065664          93
 rpro_isp                                0.062169          39
 depsum                                  0.051417          42
 strnlr                                  0.046907           3
 strelo                                  0.043120           3
 densta                                  0.041361          47
 strkin                                  0.039460           3
 truncate_high_frequency_w1              0.038438       39502
 wavpre_noio                             0.038425           2
 strehar                                 0.033565           3
 chggra                                  0.032342           3
 set_dd_paw                              0.016142          48
 fornlr                                  0.014980           3
 fftbrc_mpi                              0.012750        4296
 fft_gq                                  0.011393          42
 brpre                                   0.011272          84
 orthch                                  0.010184           3
 rcp                                     0.009399          93
 posmap                                  0.009058           2
 fewald                                  0.007655          93
 brgrid                                  0.001452           1
 vectorpot                               0.000896          43
 fordep                                  0.000615           3
 crpa_reader                             0.000288           1
 potlok_metagga                          0.000116          45
 set_dd_magatom                          0.000108          48
 set_rsgf_all                            0.000094          48
 proall                                  0.000082           3
 rotate_active_occupied_orbital          0.000028           3
 redis_pw_over_bands                     0.000007           3
 ---------------------------------------------------------------
  summed up times    1651.39277696609     
 
 Accumulative profile
 ====================
 
             routine name                   CPU           calls
 ---------------------------------------------------------------
 total_time                           1651.392777           1
 elmin                                1443.789136           3
 eddav                                 938.446912          46
 fft3d_mpi                             364.888590       98660
 fftbas_plan_mpi                       361.983228       98660
 fftbas_mpi                            318.923501       94364
 ggemm                                 295.310905       19974
 potlok                                294.417915          45
 fftwav_mpi                            261.498103       64706
 m_sumb_d                              161.243468      176780
 hamiltmu                              152.253358       15006
 dfftw_execute                         145.096222      295980
 set_dd_paw                            135.333210          48
 set_charge                            116.347567          42
 map_forward                           112.742113      133630
 kinhamil                              100.684829       29658
 fftext_mpi                             98.359958       29658
 orth1                                  86.684668       45102
 force_and_stress                       78.200806           3
 m_alltoallv_z                          71.835070       98834
 newband                                53.850855       15098
 map_backward                           53.383538       63690
 m_alltoall_d                           47.018772      220660
 fftbrc_mpi                             43.356119        4296
 rpro_isp                               39.863415          39
 redis_pw                               38.552286       79326
 map_scatter                            37.471542       98834
 map_gather                             33.092267       98834
 soft_charge                            32.906660          42
 strnlr                                 28.382811           3
 raccmu_                                25.671306       15006
 vhamil                                 25.488028       29658
 racc0mu                                24.643237       14652
 rpromu                                 19.988307       11882
 w1_projall                             15.123780       10038
 redis_proj                             14.029082       99146
 lincom                                 13.829547          98
 m_bcast_z                              13.477508       18311
 lapack                                 10.019468       15006
 fornlr                                  9.361276           3
 crrexp_mul_work_add                     8.108103     2224350
 gemm                                    7.727290     1098900
 rpromu_gemm                             7.052551      891150
 eccp                                    5.736192        9844
 crrexp_mul_wave                         5.455096     2112000
 w1_copy                                 5.193348       88974
 pw_charge                               3.991895        6888
 proall                                  3.098497           3
 augmentation_charge                     2.884416          42
 setdij_                                 2.504971         124
 brmix                                   2.084904          42
 apply_precond                           1.796779       19814
 orthch                                  1.706456           3
 m_bcast_d                               1.670516       30163
 setup_precond                           1.507440        9844
 forhar                                  1.471757           6
 overl                                   1.073030       49478
 forloc                                  0.727767           3
 broyd                                   0.675807          42
 overl1                                  0.507270       29658
 stufak                                  0.449659           3
 rspher_all                              0.444257          40
 phaser                                  0.401576         131
 fordep                                  0.359826           3
 depsum                                  0.338880          42
 wavpre_noio                             0.337407           2
 racc0                                   0.329973         354
 fft_gq                                  0.318193          42
 setg0                                   0.289348          48
 rpro1                                   0.235758         262
 inisym                                  0.217683           1
 brget                                   0.156355        2625
 chggra                                  0.141616           3
 pothar                                  0.131420          48
 choleski                                0.127546           6
 densta                                  0.112187          47
 fewald                                  0.097664          93
 brsav                                   0.081823         659
 rsp                                     0.065664          93
 strelo                                  0.048194           3
 strkin                                  0.044749           3
 truncate_high_frequency_w1              0.038438       39502
 strehar                                 0.035513           3
 brpre                                   0.011272          84
 rcp                                     0.009399          93
 posmap                                  0.009058           2
 brgrid                                  0.001452           1
 vectorpot                               0.000896          43
 crpa_reader                             0.000288           1
 potlok_metagga                          0.000116          45
 set_dd_magatom                          0.000108          48
 set_rsgf_all                            0.000094          48
 rotate_active_occupied_orbital          0.000028           3
 redis_pw_over_bands                     0.000007           3
 ---------------------------------------------------------------
 
Profiling took   5.165583  2.628321  0.009621  0.008900 seconds
Profiling took   5.102901 seconds
