 vasp.6.3.2 27Jun22 (build Jul 18 2024 17:50:03) complex                         
 executed on              LinuxNV date 2024.08.13  01:27:02
 running on  144 total cores
 distrk:  each k-point on   18 cores,    8 groups
 distr:  one band on NCORE=   1 cores,   18 groups


--------------------------------------------------------------------------------------------------------


 INCAR:
   ENCUT = 600.00
   EDIFF = 1.00e-06
   EDIFFG = -0.05
   IBRION = 2
   ALGO = Normal
   ISMEAR = 0
   SIGMA = 0.05
   LCHARG = .FALSE.
   LWAVE = .FALSE.
   LREAL = Auto
   NELM = 2000
   NSW = 5000
   NCORE = 16
   KPAR = 8
   ISPIN = 2
   GGA = MK
   PARAM1 = 0.1234
   PARAM2 = 1.0
   AGGAC = 0.0
   LUSE_VDW = .TRUE.
   LASPH = .TRUE.
   LDIPOL = .TRUE.
   DIPOL = 0.5 0.5 0.5
   IDIPOL = 3

 POTCAR:    PAW_PBE Mo_sv 02Feb2006               
 POTCAR:    PAW_PBE S 06Sep2000                   
 POTCAR:    PAW_PBE C 08Apr2002                   
 POTCAR:    PAW_PBE F 08Apr2002                   
 POTCAR:    PAW_PBE H 15Jun2001                   
 -----------------------------------------------------------------------------
|                                                                             |
|           W    W    AA    RRRRR   N    N  II  N    N   GGGG   !!!           |
|           W    W   A  A   R    R  NN   N  II  NN   N  G    G  !!!           |
|           W    W  A    A  R    R  N N  N  II  N N  N  G       !!!           |
|           W WW W  AAAAAA  RRRRR   N  N N  II  N  N N  G  GGG   !            |
|           WW  WW  A    A  R   R   N   NN  II  N   NN  G    G                |
|           W    W  A    A  R    R  N    N  II  N    N   GGGG   !!!           |
|                                                                             |
|     You use a magnetic or noncollinear calculation, but did not specify     |
|     the initial magnetic moment with the MAGMOM tag. Note that a            |
|     default of 1 will be used for all atoms. This ferromagnetic setup       |
|     may break the symmetry of the crystal, in particular it may rule        |
|     out finding an antiferromagnetic solution. Thence, we recommend         |
|     setting the initial magnetic moment manually or verifying carefully     |
|     that this magnetic setup is desired.                                    |
|                                                                             |
 -----------------------------------------------------------------------------

 -----------------------------------------------------------------------------
|                                                                             |
|           W    W    AA    RRRRR   N    N  II  N    N   GGGG   !!!           |
|           W    W   A  A   R    R  NN   N  II  NN   N  G    G  !!!           |
|           W    W  A    A  R    R  N N  N  II  N N  N  G       !!!           |
|           W WW W  AAAAAA  RRRRR   N  N N  II  N  N N  G  GGG   !            |
|           WW  WW  A    A  R   R   N   NN  II  N   NN  G    G                |
|           W    W  A    A  R    R  N    N  II  N    N   GGGG   !!!           |
|                                                                             |
|     For optimal performance we recommend to set                             |
|       NCORE = 2 up to number-of-cores-per-socket                            |
|     NCORE specifies how many cores store one orbital (NPAR=cpu/NCORE).      |
|     This setting can greatly improve the performance of VASP for DFT.       |
|     The default, NCORE=1 might be grossly inefficient on modern             |
|     multi-core architectures or massively parallel machines. Do your        |
|     own testing! More info at https://www.vasp.at/wiki/index.php/NCORE      |
|     Unfortunately you need to use the default for GW and RPA                |
|     calculations (for HF NCORE is supported but not extensively tested      |
|     yet).                                                                   |
|                                                                             |
 -----------------------------------------------------------------------------

 -----------------------------------------------------------------------------
|                                                                             |
|               ----> ADVICE to this user running VASP <----                  |
|                                                                             |
|     You have switched on vdW-DFT.                                           |
|     This routine was written and supplied by Jiri Klimes. We recommend      |
|     that you carefully read and cite the following publications:            |
|       J. Klimes, D.R. Bowler, A. Michelides                                 |
|          J. Phys.: Cond Matt. 22 022201 (2010)                              |
|       J. Klimes, D.R. Bowler, A. Michelides                                 |
|          Phys. Rev. B. 83, 195131 (2011)                                    |
|     and references therein.                                                 |
|                                                                             |
 -----------------------------------------------------------------------------

 POTCAR:    PAW_PBE Mo_sv 02Feb2006               
   SHA256 =  2731df97e41766cc617548c5a8267718fdef1f509ac6bafa01e745abea2bdfaa Mo_sv/POTCAR          
   COPYR  = (c) Copyright 02Feb2006 Georg Kresse                                                    
   COPYR  = This file is part of the software VASP. Any use, copying, and all other rights are regul
   COPYR  = If you do not have a valid VASP license, you may not use, copy or distribute this file. 
   VRHFIN =Mo: 4p5s4d                                                                               
   LEXCH  = PE                                                                                      
   EATOM  =  1862.2866 eV,  136.8742 Ry                                                             
                                                                                                    
   TITEL  = PAW_PBE Mo_sv 02Feb2006                                                                 
   LULTRA =        F    use ultrasoft PP ?                                                          
   IUNSCR =        1    unscreen: 0-lin 1-nonlin 2-no                                               
   RPACOR =    2.200    partial core radius                                                         
   POMASS =   95.940; ZVAL   =   14.000    mass and valenz                                          
   RCORE  =    2.500    outmost cutoff radius                                                       
   RWIGS  =    2.750; RWIGS  =    1.455    wigner-seitz radius (au A)                               
   ENMAX  =  242.676; ENMIN  =  182.007 eV                                                          
   ICORE  =        3    local potential                                                             
   LCOR   =        T    correct aug charges                                                         
   LPAW   =        T    paw PP                                                                      
   EAUG   =  446.014                                                                                
   DEXC   =    0.000                                                                                
   RMAX   =    2.563    core radius for proj-oper                                                   
   RAUG   =    1.300    factor for augmentation sphere                                              
   RDEP   =    2.641    radius for radial grids                                                     
   RDEPT  =    2.031    core radius for aug-charge                                                  
                                                                                                    
   Atomic configuration                                                                             
   11 entries                                                                                       
     n  l   j            E        occ.                                                              
     1  0  0.50    -19819.0341   2.0000                                                             
     2  0  0.50     -2799.0127   2.0000                                                             
     2  1  1.50     -2502.0276   6.0000                                                             
     3  0  0.50      -476.4449   2.0000                                                             
     3  1  1.50      -379.1496   6.0000                                                             
     3  2  2.50      -220.9367  10.0000                                                             
     4  0  0.50       -64.3378   2.0000                                                             
     5  0  0.50        -4.0862   1.0000                                                             
     4  1  1.50       -38.4773   6.0000                                                             
     4  2  2.50        -3.7535   5.0000                                                             
     4  3  2.50        -1.3606   0.0000                                                             
   Description                                                                                      
     l       E           TYP  RCUT    TYP  RCUT                                                     
     0    -64.3377829     23  2.100                                                                 
     0     -4.0861640     23  2.400                                                                 
     1    -38.4772993     23  2.100                                                                 
     1     13.6058260     23  2.100                                                                 
     2     -3.7534941     23  2.400                                                                 
     2     -5.1140767     23  2.400                                                                 
     3     -4.0817478     23  2.500                                                                 
  local pseudopotential read in
  partial core-charges read in
  partial kinetic energy density read in
  atomic valenz-charges read in
  non local Contribution for L=            0  read in
    real space projection operators read in
  non local Contribution for L=            0  read in
    real space projection operators read in
  non local Contribution for L=            1  read in
    real space projection operators read in
  non local Contribution for L=            1  read in
    real space projection operators read in
  non local Contribution for L=            2  read in
    real space projection operators read in
  non local Contribution for L=            2  read in
    real space projection operators read in
    PAW grid and wavefunctions read in
 
   number of l-projection  operators is LMAX  =            6
   number of lm-projection operators is LMMAX =           18
 
 POTCAR:    PAW_PBE S 06Sep2000                   
   SHA256 =  0fc7481fb0695f01bdc6462160264c5c84044ae9ec85a907d398b887a2bc3132 S/POTCAR              
   COPYR  = (c) Copyright 06Sep2000 Georg Kresse                                                    
   COPYR  = This file is part of the software VASP. Any use, copying, and all other rights are regul
   COPYR  = If you do not have a valid VASP license, you may not use, copy or distribute this file. 
   VRHFIN =S : s2p4                                                                                 
   LEXCH  = PE                                                                                      
   EATOM  =   276.8230 eV,   20.3459 Ry                                                             
                                                                                                    
   TITEL  = PAW_PBE S 06Sep2000                                                                     
   LULTRA =        F    use ultrasoft PP ?                                                          
   IUNSCR =        1    unscreen: 0-lin 1-nonlin 2-no                                               
   RPACOR =    1.500    partial core radius                                                         
   POMASS =   32.066; ZVAL   =    6.000    mass and valenz                                          
   RCORE  =    1.900    outmost cutoff radius                                                       
   RWIGS  =    2.200; RWIGS  =    1.164    wigner-seitz radius (au A)                               
   ENMAX  =  258.689; ENMIN  =  194.016 eV                                                          
   ICORE  =        2    local potential                                                             
   LCOR   =        T    correct aug charges                                                         
   LPAW   =        T    paw PP                                                                      
   EAUG   =  335.092                                                                                
   DEXC   =    0.000                                                                                
   RMAX   =    1.942    core radius for proj-oper                                                   
   RAUG   =    1.300    factor for augmentation sphere                                              
   RDEP   =    1.954    radius for radial grids                                                     
   RDEPT  =    1.744    core radius for aug-charge                                                  
                                                                                                    
   Atomic configuration                                                                             
    6 entries                                                                                       
     n  l   j            E        occ.                                                              
     1  0  0.50     -2405.8406   2.0000                                                             
     2  0  0.50      -211.7007   2.0000                                                             
     2  1  1.50      -156.4958   6.0000                                                             
     3  0  0.50       -17.2562   2.0000                                                             
     3  1  0.50        -7.0085   4.0000                                                             
     3  2  1.50        -6.8029   0.0000                                                             
   Description                                                                                      
     l       E           TYP  RCUT    TYP  RCUT                                                     
     0    -17.2561641     23  1.900                                                                 
     0    -15.8743224     23  1.900                                                                 
     1     -7.0085400     23  1.900                                                                 
     1     -2.7779785     23  1.900                                                                 
     2     -6.8029130     23  1.900                                                                 
  local pseudopotential read in
  partial core-charges read in
  partial kinetic energy density read in
  atomic valenz-charges read in
  non local Contribution for L=            0  read in
    real space projection operators read in
  non local Contribution for L=            0  read in
    real space projection operators read in
  non local Contribution for L=            1  read in
    real space projection operators read in
  non local Contribution for L=            1  read in
    real space projection operators read in
    PAW grid and wavefunctions read in
 
   number of l-projection  operators is LMAX  =            4
   number of lm-projection operators is LMMAX =            8
 
 POTCAR:    PAW_PBE C 08Apr2002                   
   SHA256 =  253f7b50bb8d59471dbedb8285d89021f4a42ed1a2c5d38a03a736e69125dd95 C/POTCAR              
   COPYR  = (c) Copyright 08Apr2002 Georg Kresse                                                    
   COPYR  = This file is part of the software VASP. Any use, copying, and all other rights are regul
   COPYR  = If you do not have a valid VASP license, you may not use, copy or distribute this file. 
   VRHFIN =C: s2p2                                                                                  
   LEXCH  = PE                                                                                      
   EATOM  =   147.1560 eV,   10.8157 Ry                                                             
                                                                                                    
   TITEL  = PAW_PBE C 08Apr2002                                                                     
   LULTRA =        F    use ultrasoft PP ?                                                          
   IUNSCR =        1    unscreen: 0-lin 1-nonlin 2-no                                               
   RPACOR =    1.200    partial core radius                                                         
   POMASS =   12.011; ZVAL   =    4.000    mass and valenz                                          
   RCORE  =    1.500    outmost cutoff radius                                                       
   RWIGS  =    1.630; RWIGS  =    0.863    wigner-seitz radius (au A)                               
   ENMAX  =  400.000; ENMIN  =  300.000 eV                                                          
   ICORE  =        2    local potential                                                             
   LCOR   =        T    correct aug charges                                                         
   LPAW   =        T    paw PP                                                                      
   EAUG   =  644.873                                                                                
   DEXC   =    0.000                                                                                
   RMAX   =    1.529    core radius for proj-oper                                                   
   RAUG   =    1.300    factor for augmentation sphere                                              
   RDEP   =    1.501    radius for radial grids                                                     
   RDEPT  =    1.300    core radius for aug-charge                                                  
                                                                                                    
   Atomic configuration                                                                             
    4 entries                                                                                       
     n  l   j            E        occ.                                                              
     1  0  0.50      -273.3789   2.0000                                                             
     2  0  0.50       -13.7508   2.0000                                                             
     2  1  0.50        -5.2854   2.0000                                                             
     3  2  1.50        -5.4423   0.0000                                                             
   Description                                                                                      
     l       E           TYP  RCUT    TYP  RCUT                                                     
     0    -13.7508458     23  1.200                                                                 
     0     -8.2022199     23  1.200                                                                 
     1     -5.2854383     23  1.500                                                                 
     1     34.0145650     23  1.500                                                                 
     2     -5.4423304      7  1.500                                                                 
  local pseudopotential read in
  partial core-charges read in
  partial kinetic energy density read in
  atomic valenz-charges read in
  non local Contribution for L=            0  read in
    real space projection operators read in
  non local Contribution for L=            0  read in
    real space projection operators read in
  non local Contribution for L=            1  read in
    real space projection operators read in
  non local Contribution for L=            1  read in
    real space projection operators read in
    PAW grid and wavefunctions read in
 
   number of l-projection  operators is LMAX  =            4
   number of lm-projection operators is LMMAX =            8
 
 POTCAR:    PAW_PBE F 08Apr2002                   
   SHA256 =  53c630871ac675939349fc2b976745ee17808dedc90b5bdde026bc81f0faf456 F/POTCAR              
   COPYR  = (c) Copyright 08Apr2002 Georg Kresse                                                    
   COPYR  = This file is part of the software VASP. Any use, copying, and all other rights are regul
   COPYR  = If you do not have a valid VASP license, you may not use, copy or distribute this file. 
   VRHFIN =F: s2p5                                                                                  
   LEXCH  = PE                                                                                      
   EATOM  =   659.6475 eV,   48.4827 Ry                                                             
                                                                                                    
   TITEL  = PAW_PBE F 08Apr2002                                                                     
   LULTRA =        F    use ultrasoft PP ?                                                          
   IUNSCR =        1    unscreen: 0-lin 1-nonlin 2-no                                               
   RPACOR =    1.200    partial core radius                                                         
   POMASS =   18.998; ZVAL   =    7.000    mass and valenz                                          
   RCORE  =    1.520    outmost cutoff radius                                                       
   RWIGS  =    1.500; RWIGS  =    0.794    wigner-seitz radius (au A)                               
   ENMAX  =  400.000; ENMIN  =  300.000 eV                                                          
   ICORE  =        2    local potential                                                             
   LCOR   =        T    correct aug charges                                                         
   LPAW   =        T    paw PP                                                                      
   EAUG   =  613.614                                                                                
   RMAX   =    1.555    core radius for proj-oper                                                   
   RAUG   =    1.300    factor for augmentation sphere                                              
   RDEP   =    1.539    radius for radial grids                                                     
   RDEPT  =    1.299    core radius for aug-charge                                                  
                                                                                                    
   Atomic configuration                                                                             
    4 entries                                                                                       
     n  l   j            E        occ.                                                              
     1  0  0.50      -663.3661   2.0000                                                             
     2  0  0.50       -29.8995   2.0000                                                             
     2  1  0.50       -11.1114   5.0000                                                             
     3  2  1.50       -10.8847   0.0000                                                             
   Description                                                                                      
     l       E           TYP  RCUT    TYP  RCUT                                                     
     0    -29.8995018     23  1.200                                                                 
     0     -9.5240782     23  1.200                                                                 
     1    -11.1113914     23  1.520                                                                 
     1      1.3605826     23  1.520                                                                 
     2    -10.8846608      7  1.500                                                                 
  local pseudopotential read in
  partial core-charges read in
  partial kinetic energy density read in
  atomic valenz-charges read in
  non local Contribution for L=            0  read in
    real space projection operators read in
  non local Contribution for L=            0  read in
    real space projection operators read in
  non local Contribution for L=            1  read in
    real space projection operators read in
  non local Contribution for L=            1  read in
    real space projection operators read in
    PAW grid and wavefunctions read in
 
   number of l-projection  operators is LMAX  =            4
   number of lm-projection operators is LMMAX =            8
 
 POTCAR:    PAW_PBE H 15Jun2001                   
   SHA256 =  030f79b5d3ab3cf0e668861823c8fb652ff669f3e15e46930bd03bfd63a607b6 H/POTCAR              
   COPYR  = (c) Copyright 15Jun2001 Georg Kresse                                                    
   COPYR  = This file is part of the software VASP. Any use, copying, and all other rights are regul
   COPYR  = If you do not have a valid VASP license, you may not use, copy or distribute this file. 
   VRHFIN =H: ultrasoft test                                                                        
   LEXCH  = PE                                                                                      
   EATOM  =    12.4884 eV,    0.9179 Ry                                                             
                                                                                                    
   TITEL  = PAW_PBE H 15Jun2001                                                                     
   LULTRA =        F    use ultrasoft PP ?                                                          
   IUNSCR =        0    unscreen: 0-lin 1-nonlin 2-no                                               
   RPACOR =    0.000    partial core radius                                                         
   POMASS =    1.000; ZVAL   =    1.000    mass and valenz                                          
   RCORE  =    1.100    outmost cutoff radius                                                       
   RWIGS  =    0.700; RWIGS  =    0.370    wigner-seitz radius (au A)                               
   ENMAX  =  250.000; ENMIN  =  200.000 eV                                                          
   RCLOC  =    0.701    cutoff for local pot                                                        
   LCOR   =        T    correct aug charges                                                         
   LPAW   =        T    paw PP                                                                      
   EAUG   =  400.000                                                                                
   RMAX   =    1.123    core radius for proj-oper                                                   
   RAUG   =    1.200    factor for augmentation sphere                                              
   RDEP   =    1.112    radius for radial grids                                                     
   RDEPT  =    0.926    core radius for aug-charge                                                  
                                                                                                    
   Atomic configuration                                                                             
    2 entries                                                                                       
     n  l   j            E        occ.                                                              
     1  0  0.50        -6.4927   1.0000                                                             
     2  1  0.50        -3.4015   0.0000                                                             
   Description                                                                                      
     l       E           TYP  RCUT    TYP  RCUT                                                     
     0     -6.4927494     23  1.100                                                                 
     0      6.8029130     23  1.100                                                                 
     1     -4.0817478     23  1.100                                                                 
  local pseudopotential read in
  atomic valenz-charges read in
  non local Contribution for L=            0  read in
    real space projection operators read in
  non local Contribution for L=            0  read in
    real space projection operators read in
  non local Contribution for L=            1  read in
    real space projection operators read in
    PAW grid and wavefunctions read in
 
   number of l-projection  operators is LMAX  =            3
   number of lm-projection operators is LMMAX =            5
 
 Optimization of the real space projectors (new method)

 maximal supplied QI-value         = 15.12
 optimisation between [QCUT,QGAM] = [ 12.55, 25.10] = [ 44.09,176.36] Ry 
 Optimized for a Real-space Cutoff    1.47 Angstroem

   l    n(q)    QCUT    max X(q) W(low)/X(q) W(high)/X(q)  e(spline) 
   0     11    12.548     3.559    0.18E-04    0.60E-05    0.19E-06
   0     11    12.548    20.730    0.37E-04    0.13E-04    0.98E-07
   1     11    12.548     3.279    0.80E-06    0.70E-06    0.27E-07
   1     11    12.548     4.693    0.72E-04    0.11E-03    0.38E-06
   2     10    12.548    67.616    0.34E-03    0.45E-03    0.54E-06
   2     10    12.548    62.420    0.34E-03    0.45E-03    0.54E-06
 Optimization of the real space projectors (new method)

 maximal supplied QI-value         = 19.84
 optimisation between [QCUT,QGAM] = [ 12.50, 25.00] = [ 43.76,175.03] Ry 
 Optimized for a Real-space Cutoff    1.06 Angstroem

   l    n(q)    QCUT    max X(q) W(low)/X(q) W(high)/X(q)  e(spline) 
   0      8    12.501   187.594    0.26E-03    0.17E-03    0.97E-07
   0      8    12.501   164.243    0.26E-03    0.17E-03    0.96E-07
   1      7    12.501    67.533    0.50E-03    0.61E-03    0.91E-07
   1      7    12.501    50.729    0.48E-03    0.60E-03    0.90E-07
 Optimization of the real space projectors (new method)

 maximal supplied QI-value         = 25.13
 optimisation between [QCUT,QGAM] = [ 12.32, 24.88] = [ 42.47,173.37] Ry 
 Optimized for a Real-space Cutoff    1.06 Angstroem

   l    n(q)    QCUT    max X(q) W(low)/X(q) W(high)/X(q)  e(spline) 
   0      8    12.315   115.676    0.34E-03    0.18E-03    0.23E-06
   0      8    12.315    87.132    0.34E-03    0.18E-03    0.22E-06
   1      7    12.315     4.429    0.45E-03    0.12E-03    0.18E-06
   1      7    12.315     2.733    0.35E-03    0.97E-04    0.15E-06
 Optimization of the real space projectors (new method)

 maximal supplied QI-value         = 24.76
 optimisation between [QCUT,QGAM] = [ 12.38, 25.00] = [ 42.90,175.06] Ry 
 Optimized for a Real-space Cutoff    1.03 Angstroem

   l    n(q)    QCUT    max X(q) W(low)/X(q) W(high)/X(q)  e(spline) 
   0      8    12.378    14.049    0.35E-03    0.80E-04    0.14E-06
   0      8    12.378     8.945    0.50E-03    0.13E-03    0.19E-06
   1      7    12.378     7.086    0.49E-03    0.21E-03    0.21E-06
   1      7    12.378     6.747    0.44E-03    0.20E-03    0.19E-06
 Optimization of the real space projectors (new method)

 maximal supplied QI-value         = 34.20
 optimisation between [QCUT,QGAM] = [ 12.31, 24.97] = [ 42.46,174.58] Ry 
 Optimized for a Real-space Cutoff    1.00 Angstroem

   l    n(q)    QCUT    max X(q) W(low)/X(q) W(high)/X(q)  e(spline) 
   0      7    12.313    19.460    0.14E-03    0.42E-03    0.16E-06
   0      7    12.313    12.209    0.12E-03    0.40E-03    0.16E-06
   1      7    12.313     4.655    0.33E-03    0.59E-03    0.89E-07
 -----------------------------------------------------------------------------
|                                                                             |
|               ----> ADVICE to this user running VASP <----                  |
|                                                                             |
|     You enforced a specific xc type in the INCAR file but a different       |
|     type was found in the POTCAR file.                                      |
|     I HOPE YOU KNOW WHAT YOU ARE DOING!                                     |
|                                                                             |
 -----------------------------------------------------------------------------

  PAW_PBE Mo_sv 02Feb2006               :
 energy of atom  1       EATOM=-1862.2866
 kinetic energy error for atom=    0.0041 (will be added to EATOM!!)
  PAW_PBE S 06Sep2000                   :
 energy of atom  2       EATOM= -276.8230
 kinetic energy error for atom=    0.0009 (will be added to EATOM!!)
  PAW_PBE C 08Apr2002                   :
 energy of atom  3       EATOM= -147.1560
 kinetic energy error for atom=    0.0057 (will be added to EATOM!!)
  PAW_PBE F 08Apr2002                   :
 energy of atom  4       EATOM= -659.6475
 kinetic energy error for atom=    0.0256 (will be added to EATOM!!)
  PAW_PBE H 15Jun2001                   :
 energy of atom  5       EATOM=  -12.4884
 kinetic energy error for atom=    0.0004 (will be added to EATOM!!)
 
 
 POSCAR: Mo S  C  F  H
  positions in cartesian coordinates
  No initial velocities read in
 exchange correlation table for  LEXCH =       43
   RHO(1)=    0.500       N(1)  =     2000
   RHO(2)=  100.500       N(2)  =     4000

 VTST: version 4.1, (05/19/21)

 CHAIN: initializing optimizer
 
 OPT: Using VASP Conjugate-Gradient optimizer
 CHAIN: Read ICHAIN             0
 
 POSCAR: Mo S  C  F  H
  positions in cartesian coordinates
  No initial velocities read in
 


--------------------------------------------------------------------------------------------------------


 ion  position               nearest neighbor table
   1  0.134  0.065  0.500- 162 2.41 159 2.41 144 2.41 147 2.41 141 2.41 138 2.41  72 3.16  71 3.16
                            67 3.16  49 3.17  20 3.17  62 3.17
   2  0.668  0.732  0.670- 196 2.40 117 2.40 106 2.40 193 2.41 108 2.41 114 2.42  37 3.16   8 3.16
                            64 3.16  55 3.17  32 3.19  42 3.20
   3  0.268  0.932  0.669- 155 2.40 215 2.41 143 2.41 218 2.41 140 2.41 149 2.41   9 3.16  51 3.16
                            50 3.16  25 3.16  74 3.16  28 3.17
   4  0.266  0.933  0.330- 142 2.41 217 2.41 148 2.41 214 2.41 139 2.41 146 2.41  29 3.16  75 3.16
                            24 3.16  70 3.16  52 3.17  10 3.17
   5  0.333  0.865  0.500- 136 2.41 210 2.41 213 2.41 197 2.41 216 2.41 207 2.41  71 3.16  72 3.16
                            53 3.16  30 3.16  12 3.17  23 3.17
   6  0.734  0.866  0.500- 119 2.41 116 2.41 100 2.41  76 2.41 110 2.41  89 2.41  46 3.16  22 3.16
                            34 3.16  30 3.16  67 3.17  49 3.17
   7  0.666  0.933  0.330- 201 2.41 105 2.41  94 2.41 198 2.41 107 2.41  97 2.41  63 3.16  29 3.16
                            16 3.16  11 3.16  26 3.16  33 3.17
   8  0.668  0.932  0.669-  96 2.41 108 2.41 199 2.41  93 2.41 106 2.41 134 2.41   2 3.16  27 3.16
                            64 3.16  17 3.17  32 3.17  28 3.17
   9  0.268  0.732  0.670- 209 2.41 137 2.41 157 2.41 215 2.41 218 2.41 212 2.41  32 3.15  13 3.16
                            51 3.16   3 3.16  56 3.16  28 3.17
  10  0.266  0.732  0.330- 211 2.41 145 2.41 217 2.41 214 2.41 158 2.41 208 2.41  52 3.16  57 3.16
                            33 3.16  14 3.16  29 3.17   4 3.17
  11  0.666  0.732  0.330- 195 2.41 105 2.41 118 2.41 115 2.41 192 2.41 107 2.41  33 3.16  63 3.16
                            41 3.16  38 3.16   7 3.16  69 3.17
  12  0.333  0.665  0.500- 204 2.41 207 2.41 194 2.41 191 2.41 210 2.41 179 2.41  59 3.16  15 3.16
                            34 3.16   5 3.17  53 3.17  30 3.17
  13  0.268  0.532  0.671- 206 2.40 209 2.41 173 2.41 176 2.41 181 2.41 212 2.41   9 3.16  56 3.16
                            32 3.16  60 3.16  18 3.18  37 3.18
  14  0.266  0.532  0.330- 211 2.41 205 2.41 175 2.41 172 2.41 208 2.41 180 2.41  38 3.16  19 3.16
                            61 3.16  33 3.16  10 3.16  57 3.17
  15  0.334  0.465  0.500- 204 2.41 186 2.41 153 2.41 179 2.41 150 2.41 188 2.41  39 3.16  34 3.16
                            12 3.16  62 3.16  20 3.16  59 3.16
  16  0.866  0.133  0.330-  90 2.41  94 2.41 124 2.41  97 2.41 102 2.41 132 2.41  61 3.16  47 3.16
                             7 3.16  66 3.17  63 3.17  26 3.17
  17  0.868  0.132  0.669-  96 2.41 122 2.41  88 2.41 104 2.41  91 2.41  93 2.41  64 3.16  60 3.17
                            65 3.17  48 3.17   8 3.17  27 3.17
  18  0.269  0.332  0.671- 206 2.39 152 2.40 167 2.41 181 2.41 170 2.41 178 2.42  50 3.16  65 3.17
                            37 3.17  60 3.17  13 3.18  43 3.21
  19  0.266  0.332  0.330- 205 2.41 154 2.41 151 2.41 169 2.41 180 2.41 166 2.41  61 3.16  66 3.16
                            70 3.16  14 3.16  44 3.16  38 3.17
  20  0.334  0.265  0.500- 183 2.41 150 2.41 144 2.41 202 2.41 153 2.41 147 2.41  45 3.16  62 3.16
                            39 3.16  15 3.16   1 3.17  71 3.17
  21  0.934  0.266  0.500- 131 2.41  80 2.41 123 2.41 168 2.41  81 2.41 165 2.41  73 3.16  59 3.16
                            49 3.16  31 3.17  22 3.17  62 3.17
  22  0.734  0.065  0.500- 101 2.41  76 2.41  80 2.41  95 2.41 131 2.41 110 2.41   6 3.16  31 3.16
                            23 3.16  30 3.17  21 3.17  49 3.17
  23  0.534  0.065  0.500- 219 2.41 136 2.41 222 2.41 197 2.41 101 2.41  95 2.41  71 3.16  31 3.16
                            30 3.16  22 3.16  45 3.17   5 3.17
  24  0.466  0.133  0.330- 148 2.41 203 2.41 146 2.41 200 2.41 184 2.41 220 2.41  26 3.16  70 3.16
                            35 3.16   4 3.16  44 3.16  29 3.17
  25  0.468  0.131  0.669- 221 2.40 182 2.41 223 2.41 155 2.41 149 2.41 185 2.42  43 3.12  28 3.15
                            36 3.16  27 3.16   3 3.16  50 3.17
  26  0.666  0.133  0.330- 203 2.41  94 2.41  78 2.41  97 2.41 220 2.41  84 2.41  24 3.16  47 3.16
                             7 3.16  35 3.16  16 3.17  29 3.17
  27  0.668  0.132  0.669-  79 2.40 221 2.41  96 2.41  93 2.41 223 2.41  85 2.41  25 3.16  28 3.16
                            36 3.16   8 3.16  17 3.17  48 3.17
  28  0.468  0.932  0.669- 199 2.40 221 2.41 223 2.41 218 2.41 215 2.41 134 2.41  32 3.15  25 3.15
                            27 3.16   3 3.17   8 3.17   9 3.17
  29  0.466  0.932  0.330- 203 2.41 201 2.41 217 2.41 214 2.41 220 2.41 198 2.41   4 3.16  33 3.16
                             7 3.16  10 3.17  26 3.17  24 3.17
  30  0.533  0.865  0.500-  76 2.41 197 2.41 194 2.41 136 2.41 191 2.41 110 2.41  23 3.16  34 3.16
                             5 3.16   6 3.16  22 3.17  12 3.17
  31  0.733  0.265  0.500- 123 2.41  77 2.41  81 2.41  95 2.41  87 2.41 101 2.41  22 3.16  73 3.16
                            23 3.16  45 3.16  21 3.17  40 3.17
  32  0.467  0.733  0.670- 193 2.38 212 2.40 134 2.40 196 2.41 199 2.41 209 2.41  28 3.15   9 3.15
                            13 3.16   8 3.17  37 3.18   2 3.19
  33  0.466  0.732  0.330- 195 2.41 211 2.41 201 2.41 208 2.41 198 2.41 192 2.41  11 3.16  29 3.16
                            10 3.16  14 3.16  38 3.16   7 3.17
  34  0.534  0.665  0.500- 191 2.41 188 2.41 194 2.41 186 2.41 116 2.41 119 2.41  46 3.16  15 3.16
                            30 3.16  39 3.16  12 3.16   6 3.16
  35  0.666  0.333  0.329-  84 2.41 130 2.41 184 2.41  78 2.41 127 2.41 200 2.41  41 3.16  44 3.16
                            24 3.16  68 3.16  26 3.16  47 3.16
  36  0.667  0.331  0.669-  85 2.41  79 2.41 182 2.41 126 2.41 185 2.42 129 2.42  43 3.11  42 3.14
                            25 3.16  27 3.16  48 3.17  58 3.17
  37  0.469  0.533  0.674- 193 2.38 181 2.40 206 2.43 196 2.43 190 2.44 225 2.64   2 3.16  18 3.17
                            42 3.18  13 3.18  32 3.18  43 3.24
  38  0.466  0.532  0.330- 205 2.41 189 2.41 195 2.41 135 2.41 192 2.41 180 2.41  44 3.16  14 3.16
                            41 3.16  11 3.16  33 3.16  19 3.17
  39  0.534  0.466  0.500- 186 2.41 128 2.41 183 2.41 188 2.41 133 2.41 202 2.41  15 3.16  40 3.16
                            46 3.16  34 3.16  20 3.16  45 3.17
  40  0.733  0.465  0.500- 109 2.41 128 2.41  87 2.41 113 2.41  77 2.41 133 2.41  54 3.16  39 3.16
                            45 3.16  73 3.16  46 3.17  31 3.17
  41  0.666  0.533  0.330- 115 2.41 130 2.41 189 2.41 118 2.41 127 2.41 135 2.41  35 3.16  38 3.16
                            44 3.16  11 3.16  69 3.17  68 3.17
  42  0.668  0.530  0.670- 237 1.86 190 2.39 126 2.39 129 2.39 117 2.41 114 2.42 225 3.01  36 3.14
                            58 3.15  43 3.15  37 3.18  55 3.19   2 3.20
  43  0.470  0.329  0.668- 237 1.79 185 2.37 190 2.38 182 2.39 178 2.41 152 2.42  36 3.11  25 3.12
                            42 3.15  50 3.16  18 3.21  37 3.24
  44  0.466  0.333  0.330- 154 2.41 184 2.41 189 2.41 135 2.41 151 2.41 200 2.41  38 3.16  41 3.16
                            35 3.16  70 3.16  19 3.16  24 3.16
  45  0.534  0.265  0.500- 219 2.41 183 2.41  77 2.41  87 2.41 222 2.41 202 2.41  20 3.16  40 3.16
                            31 3.16  39 3.17  23 3.17  71 3.17
  46  0.733  0.666  0.500- 125 2.41 128 2.41 133 2.41 119 2.41  86 2.41 116 2.41  34 3.16   6 3.16
                            67 3.16  39 3.16  54 3.16  40 3.17
  47  0.866  0.333  0.330- 124 2.41 120 2.41  84 2.41 111 2.41 102 2.41  78 2.41  57 3.16  68 3.16
                            16 3.16  26 3.16  35 3.16  61 3.17
  48  0.868  0.332  0.669-  79 2.41 112 2.41 122 2.41 121 2.41  85 2.41  88 2.41  56 3.16  58 3.17
                            17 3.17  60 3.17  36 3.17  27 3.17
  49  0.934  0.066  0.500- 100 2.41 131 2.41  89 2.41 162 2.41  80 2.41 159 2.41  21 3.16  62 3.16
                             1 3.17  67 3.17   6 3.17  22 3.17
  50  0.268  0.132  0.669- 164 2.41 155 2.41 149 2.41 152 2.41 161 2.41 178 2.41  65 3.16  18 3.16
                            43 3.16  74 3.16   3 3.16  25 3.17
  51  0.068  0.732  0.669-  92 2.41 157 2.41 137 2.41 140 2.41 143 2.41  82 2.41  55 3.15   9 3.16
                             3 3.16  56 3.16  58 3.17  74 3.17
  52  0.066  0.732  0.330- 142 2.41  83 2.41 145 2.41 103 2.41 158 2.41 139 2.41  10 3.16  68 3.16
                            75 3.16  57 3.16   4 3.17  69 3.17
  53  0.133  0.665  0.500- 210 2.41 177 2.41 174 2.41 207 2.41 156 2.41 171 2.41  73 3.16  59 3.16
                             5 3.16  72 3.16  12 3.17  54 3.17
  54  0.933  0.665  0.500- 156 2.41 177 2.41 109 2.41 113 2.41 125 2.41  86 2.41  40 3.16  67 3.16
                            46 3.16  72 3.17  53 3.17  73 3.17
  55  0.869  0.732  0.669- 117 2.39  82 2.40 224 2.40  92 2.41 114 2.41  99 2.41  51 3.15  74 3.16
                            64 3.16  58 3.17   2 3.17  42 3.19
  56  0.068  0.532  0.670- 112 2.41 173 2.41 157 2.41 137 2.41 121 2.41 176 2.41  58 3.16  13 3.16
                            48 3.16  51 3.16   9 3.16  60 3.17
  57  0.066  0.532  0.330- 145 2.41 120 2.41 158 2.41 175 2.41 111 2.41 172 2.41  47 3.16  61 3.16
                            10 3.16  52 3.16  14 3.17  68 3.17
  58  0.868  0.532  0.669- 112 2.40  92 2.41 121 2.41  82 2.41 129 2.41 126 2.41  42 3.15  56 3.16
                            48 3.17  51 3.17  55 3.17  36 3.17
  59  0.134  0.465  0.500- 165 2.41 168 2.41 204 2.41 171 2.41 174 2.41 179 2.41  12 3.16  21 3.16
                            62 3.16  53 3.16  15 3.16  73 3.17
  60  0.068  0.332  0.670- 170 2.41  88 2.41 176 2.41 173 2.41 122 2.41 167 2.41  65 3.16  13 3.16
                            17 3.17  48 3.17  56 3.17  18 3.17
  61  0.066  0.332  0.330- 175 2.41 124 2.41 169 2.41 102 2.41 166 2.41 172 2.41  19 3.16  16 3.16
                            57 3.16  14 3.16  66 3.16  47 3.17
  62  0.134  0.265  0.500- 159 2.41 162 2.41 168 2.41 153 2.41 165 2.41 150 2.41  20 3.16  15 3.16
                            59 3.16  49 3.16   1 3.17  21 3.17
  63  0.866  0.932  0.330-  90 2.41 187 2.41 132 2.41 105 2.41  98 2.41 107 2.41   7 3.16  69 3.16
                            11 3.16  66 3.16  16 3.17  75 3.17
  64  0.868  0.932  0.669- 104 2.41 106 2.41  99 2.41  91 2.41 224 2.41 108 2.41  74 3.16   2 3.16
                            55 3.16  17 3.16   8 3.16  65 3.17
  65  0.068  0.132  0.670- 161 2.41 104 2.41 164 2.41 167 2.41 170 2.41  91 2.41  74 3.16  50 3.16
                            60 3.16  17 3.17  18 3.17  64 3.17
  66  0.066  0.132  0.330-  90 2.41 163 2.41 169 2.41 166 2.41 132 2.41 160 2.41  19 3.16  75 3.16
                            63 3.16  61 3.16  70 3.17  16 3.17
  67  0.934  0.865  0.500-  89 2.41 100 2.41 125 2.41 141 2.41 138 2.41  86 2.41  72 3.16  54 3.16
                            46 3.16   1 3.16   6 3.17  49 3.17
  68  0.866  0.533  0.329-  83 2.41 130 2.41 120 2.41 103 2.41 111 2.41 127 2.41  47 3.16  52 3.16
                            35 3.16  69 3.17  57 3.17  41 3.17
  69  0.866  0.733  0.330- 115 2.41 187 2.41  83 2.41 103 2.41  98 2.41 118 2.41  63 3.16  75 3.16
                            68 3.17  41 3.17  11 3.17  52 3.17
  70  0.266  0.133  0.330- 148 2.41 163 2.41 160 2.41 154 2.41 151 2.41 146 2.41  24 3.16  19 3.16
                            44 3.16   4 3.16  75 3.16  66 3.17
  71  0.334  0.065  0.500- 147 2.41 219 2.41 144 2.41 213 2.41 216 2.41 222 2.41   5 3.16   1 3.16
                            23 3.16  72 3.16  20 3.17  45 3.17
  72  0.133  0.865  0.500- 177 2.41 141 2.41 216 2.41 156 2.41 138 2.41 213 2.41   5 3.16   1 3.16
                            67 3.16  71 3.16  53 3.16  54 3.17
  73  0.933  0.465  0.500- 174 2.41 109 2.41 123 2.41 171 2.41 113 2.41  81 2.41  21 3.16  31 3.16
                            53 3.16  40 3.16  54 3.17  59 3.17
  74  0.068  0.932  0.669- 140 2.41  99 2.41 164 2.41 143 2.41 161 2.41 224 2.41  55 3.16  64 3.16
                            65 3.16  50 3.16   3 3.16  51 3.17
  75  0.066  0.932  0.330- 163 2.41 187 2.41 142 2.41 160 2.41  98 2.41 139 2.41  66 3.16   4 3.16
                            69 3.16  52 3.16  70 3.16  63 3.17
  76  0.667  0.932  0.457-   6 2.41  22 2.41  30 2.41
  77  0.667  0.332  0.543-  31 2.41  45 2.41  40 2.41
  78  0.733  0.266  0.373-  26 2.41  35 2.41  47 2.41
  79  0.734  0.265  0.712-  27 2.40  48 2.41  36 2.41
  80  0.867  0.132  0.457-  21 2.41  22 2.41  49 2.41
  81  0.867  0.332  0.457-  31 2.41  73 2.41  21 2.41
  82  0.934  0.665  0.626-  55 2.40  51 2.41  58 2.41
  83  0.933  0.666  0.287-  68 2.41  52 2.41  69 2.41
  84  0.733  0.266  0.286-  35 2.41  47 2.41  26 2.41
  85  0.735  0.265  0.626-  36 2.41  48 2.41  27 2.41
  86  0.867  0.732  0.457-  67 2.41  46 2.41  54 2.41
  87  0.667  0.332  0.457-  45 2.41  31 2.41  40 2.41
  88  0.934  0.265  0.713-  60 2.41  17 2.41  48 2.41
  89  0.867  0.932  0.543-  67 2.41   6 2.41  49 2.41
  90  0.933  0.066  0.287-  16 2.41  63 2.41  66 2.41
  91  0.935  0.066  0.626-  17 2.41  64 2.41  65 2.41
  92  0.935  0.666  0.712-  51 2.41  58 2.41  55 2.41
  93  0.735  0.065  0.626-   8 2.41  27 2.41  17 2.41
  94  0.733  0.066  0.287-  26 2.41   7 2.41  16 2.41
  95  0.667  0.132  0.457-  22 2.41  23 2.41  31 2.41
  96  0.734  0.065  0.712-   8 2.41  17 2.41  27 2.41
  97  0.733  0.066  0.373-  26 2.41  16 2.41   7 2.41
  98  0.933  0.866  0.373-  75 2.41  63 2.41  69 2.41
  99  0.935  0.865  0.712-  74 2.41  64 2.41  55 2.41
 100  0.867  0.932  0.457-  67 2.41  49 2.41   6 2.41
 101  0.667  0.132  0.543-  22 2.41  23 2.41  31 2.41
 102  0.933  0.266  0.373-  61 2.41  16 2.41  47 2.41
 103  0.933  0.666  0.373-  52 2.41  68 2.41  69 2.41
 104  0.935  0.065  0.713-  65 2.41  64 2.41  17 2.41
 105  0.733  0.866  0.287-   7 2.41  11 2.41  63 2.41
 106  0.735  0.866  0.713-   2 2.40  64 2.41   8 2.41
 107  0.733  0.866  0.373-   7 2.41  63 2.41  11 2.41
 108  0.734  0.864  0.626-   8 2.41  64 2.41   2 2.41
 109  0.867  0.532  0.543-  40 2.41  73 2.41  54 2.41
 110  0.667  0.932  0.543-   6 2.41  22 2.41  30 2.41
 111  0.933  0.466  0.373-  47 2.41  57 2.41  68 2.41
 112  0.934  0.465  0.713-  58 2.40  56 2.41  48 2.41
 113  0.867  0.532  0.457-  54 2.41  73 2.41  40 2.41
 114  0.733  0.664  0.627-  55 2.41   2 2.42  42 2.42
 115  0.733  0.666  0.287-  41 2.41  11 2.41  69 2.41
 116  0.667  0.732  0.457-   6 2.41  34 2.41  46 2.41
 117  0.737  0.665  0.712-  55 2.39   2 2.40  42 2.41
 118  0.733  0.666  0.373-  11 2.41  41 2.41  69 2.41
 119  0.667  0.732  0.543-   6 2.41  34 2.41  46 2.41
 120  0.933  0.466  0.287-  57 2.41  47 2.41  68 2.41
 121  0.934  0.465  0.626-  48 2.41  58 2.41  56 2.41
 122  0.935  0.266  0.627-  17 2.41  48 2.41  60 2.41
 123  0.867  0.332  0.543-  31 2.41  73 2.41  21 2.41
 124  0.933  0.266  0.287-  61 2.41  47 2.41  16 2.41
 125  0.867  0.732  0.543-  46 2.41  67 2.41  54 2.41
 126  0.734  0.467  0.626-  42 2.39  36 2.41  58 2.41
 127  0.733  0.466  0.286-  41 2.41  35 2.41  68 2.41
 128  0.667  0.532  0.457-  46 2.41  39 2.41  40 2.41
 129  0.734  0.464  0.713-  42 2.39  58 2.41  36 2.42
 130  0.733  0.466  0.373-  68 2.41  41 2.41  35 2.41
 131  0.867  0.132  0.543-  21 2.41  22 2.41  49 2.41
 132  0.933  0.066  0.373-  63 2.41  16 2.41  66 2.41
 133  0.667  0.532  0.543-  46 2.41  39 2.41  40 2.41
 134  0.535  0.865  0.626-  32 2.40  28 2.41   8 2.41
 135  0.533  0.466  0.373-  38 2.41  44 2.41  41 2.41
 136  0.467  0.932  0.457-  23 2.41   5 2.41  30 2.41
 137  0.134  0.665  0.626-  51 2.41   9 2.41  56 2.41
 138  0.067  0.932  0.543-  67 2.41  72 2.41   1 2.41
 139  0.133  0.866  0.373-   4 2.41  52 2.41  75 2.41
 140  0.134  0.866  0.712-  74 2.41   3 2.41  51 2.41
 141  0.067  0.932  0.457-  72 2.41  67 2.41   1 2.41
 142  0.133  0.866  0.287-   4 2.41  52 2.41  75 2.41
 143  0.134  0.865  0.626-   3 2.41  74 2.41  51 2.41
 144  0.267  0.132  0.543-  71 2.41  20 2.41   1 2.41
 145  0.133  0.666  0.287-  57 2.41  10 2.41  52 2.41
 146  0.333  0.066  0.373-  24 2.41  70 2.41   4 2.41
 147  0.267  0.132  0.457-  71 2.41   1 2.41  20 2.41
 148  0.333  0.066  0.287-  70 2.41  24 2.41   4 2.41
 149  0.334  0.065  0.626-  50 2.41   3 2.41  25 2.41
 150  0.267  0.332  0.543-  15 2.41  20 2.41  62 2.41
 151  0.333  0.266  0.373-  19 2.41  70 2.41  44 2.41
 152  0.338  0.265  0.712-  18 2.40  50 2.41  43 2.42
 153  0.267  0.332  0.457-  15 2.41  20 2.41  62 2.41
 154  0.333  0.266  0.287-  19 2.41  44 2.41  70 2.41
 155  0.335  0.065  0.712-   3 2.40  50 2.41  25 2.41
 156  0.067  0.732  0.457-  54 2.41  72 2.41  53 2.41
 157  0.134  0.666  0.713-  51 2.41  56 2.41   9 2.41
 158  0.133  0.666  0.373-  57 2.41  52 2.41  10 2.41
 159  0.067  0.132  0.543-  62 2.41   1 2.41  49 2.41
 160  0.133  0.066  0.373-  70 2.41  75 2.41  66 2.41
 161  0.135  0.065  0.713-  65 2.41  50 2.41  74 2.41
 162  0.067  0.132  0.457-   1 2.41  62 2.41  49 2.41
 163  0.133  0.066  0.287-  75 2.41  70 2.41  66 2.41
 164  0.134  0.066  0.626-  50 2.41  74 2.41  65 2.41
 165  0.067  0.332  0.543-  59 2.41  62 2.41  21 2.41
 166  0.133  0.266  0.373-  61 2.41  19 2.41  66 2.41
 167  0.134  0.264  0.713-  18 2.41  65 2.41  60 2.41
 168  0.067  0.332  0.457-  59 2.41  62 2.41  21 2.41
 169  0.133  0.266  0.287-  61 2.41  19 2.41  66 2.41
 170  0.136  0.267  0.627-  60 2.41  65 2.41  18 2.41
 171  0.067  0.532  0.543-  73 2.41  59 2.41  53 2.41
 172  0.133  0.466  0.373-  14 2.41  61 2.41  57 2.41
 173  0.133  0.465  0.713-  13 2.41  56 2.41  60 2.41
 174  0.067  0.532  0.457-  73 2.41  53 2.41  59 2.41
 175  0.133  0.466  0.287-  61 2.41  14 2.41  57 2.41
 176  0.135  0.465  0.627-  60 2.41  13 2.41  56 2.41
 177  0.067  0.732  0.543-  72 2.41  53 2.41  54 2.41
 178  0.333  0.266  0.626-  50 2.41  43 2.41  18 2.42
 179  0.267  0.532  0.543-  15 2.41  12 2.41  59 2.41
 180  0.333  0.466  0.373-  19 2.41  38 2.41  14 2.41
 181  0.330  0.464  0.715-  37 2.40  13 2.41  18 2.41
 182  0.535  0.264  0.712-  43 2.39  25 2.41  36 2.41
 183  0.467  0.332  0.457-  20 2.41  45 2.41  39 2.41
 184  0.533  0.266  0.286-  44 2.41  35 2.41  24 2.41
 185  0.534  0.264  0.625-  43 2.37  25 2.42  36 2.42
 186  0.467  0.532  0.543-  15 2.41  39 2.41  34 2.41
 187  0.933  0.866  0.287-  75 2.41  63 2.41  69 2.41
 188  0.467  0.532  0.457-  34 2.41  15 2.41  39 2.41
 189  0.533  0.466  0.286-  38 2.41  41 2.41  44 2.41
 190  0.533  0.468  0.629-  43 2.38  42 2.39  37 2.44
 191  0.467  0.732  0.543-  34 2.41  12 2.41  30 2.41
 192  0.533  0.666  0.373-  38 2.41  11 2.41  33 2.41
 193  0.535  0.672  0.713-  32 2.38  37 2.38   2 2.41
 194  0.467  0.732  0.457-  34 2.41  12 2.41  30 2.41
 195  0.533  0.666  0.287-  33 2.41  11 2.41  38 2.41
 196  0.532  0.661  0.628-   2 2.40  32 2.41  37 2.43
 197  0.467  0.932  0.543-  23 2.41   5 2.41  30 2.41
 198  0.533  0.866  0.373-   7 2.41  33 2.41  29 2.41
 199  0.535  0.867  0.712-  28 2.40   8 2.41  32 2.41
 200  0.533  0.266  0.373-  24 2.41  44 2.41  35 2.41
 201  0.533  0.866  0.287-   7 2.41  29 2.41  33 2.41
 202  0.467  0.332  0.543-  20 2.41  45 2.41  39 2.41
 203  0.533  0.066  0.287-  24 2.41  26 2.41  29 2.41
 204  0.267  0.532  0.457-  15 2.41  12 2.41  59 2.41
 205  0.333  0.466  0.287-  19 2.41  38 2.41  14 2.41
 206  0.339  0.467  0.629-  18 2.39  13 2.40  37 2.43
 207  0.267  0.732  0.543-  12 2.41  53 2.41   5 2.41
 208  0.333  0.666  0.373-  14 2.41  33 2.41  10 2.41
 209  0.334  0.667  0.713-  13 2.41   9 2.41  32 2.41
 210  0.267  0.732  0.457-  53 2.41   5 2.41  12 2.41
 211  0.333  0.666  0.287-  14 2.41  10 2.41  33 2.41
 212  0.334  0.664  0.627-  32 2.40  13 2.41   9 2.41
 213  0.267  0.932  0.543-  71 2.41   5 2.41  72 2.41
 214  0.333  0.866  0.373-   4 2.41  10 2.41  29 2.41
 215  0.335  0.866  0.712-   3 2.41   9 2.41  28 2.41
 216  0.267  0.932  0.457-  72 2.41  71 2.41   5 2.41
 217  0.333  0.866  0.287-   4 2.41  29 2.41  10 2.41
 218  0.334  0.865  0.626-  28 2.41   3 2.41   9 2.41
 219  0.467  0.132  0.543-  23 2.41  71 2.41  45 2.41
 220  0.533  0.066  0.373-  26 2.41  24 2.41  29 2.41
 221  0.535  0.065  0.712-  25 2.40  28 2.41  27 2.41
 222  0.467  0.132  0.457-  23 2.41  45 2.41  71 2.41
 223  0.535  0.065  0.626-  28 2.41  25 2.41  27 2.41
 224  0.935  0.866  0.626-  55 2.40  64 2.41  74 2.41
 225  0.531  0.486  0.734- 226 1.82  37 2.64  42 3.01
 226  0.527  0.526  0.780- 227 1.41 231 1.41 225 1.82
 227  0.591  0.616  0.797- 236 1.35 229 1.39 226 1.41
 228  0.495  0.456  0.843- 234 1.35 231 1.39 230 1.40
 229  0.606  0.628  0.835- 232 1.35 230 1.39 227 1.39
 230  0.559  0.548  0.858- 233 1.34 229 1.39 228 1.40
 231  0.479  0.447  0.805- 235 1.35 228 1.39 226 1.41
 232  0.669  0.716  0.849- 229 1.35
 233  0.577  0.558  0.894- 230 1.34
 234  0.450  0.378  0.865- 228 1.35
 235  0.417  0.356  0.792- 231 1.35
 236  0.645  0.698  0.777- 227 1.35
 237  0.564  0.426  0.694-  43 1.79  42 1.86
 
  LATTYP: Found a hexagonal cell.
 ALAT       =    15.8227971106
 C/A-ratio  =     2.3015723924
  
  Lattice vectors:
  
 A1 = (   7.9113990000, -13.7029440000,   0.0000000000)
 A2 = (   7.9113990000,  13.7029440000,   0.0000000000)
 A3 = (   0.0000000000,   0.0000000000,  36.4173130000)


Analysis of symmetry for initial positions (statically):
=====================================================================
 Subroutine PRICEL returns:
 Original cell was already a primitive cell.
 

 Routine SETGRP: Setting up the symmetry group for a 
 hexagonal supercell.


 Subroutine GETGRP returns: Found  1 space group operations
 (whereof  1 operations were pure point group operations)
 out of a pool of 24 trial point group operations.


The static configuration has the point symmetry C_1 .


Analysis of symmetry for dynamics (positions and initial velocities):
=====================================================================
 Subroutine PRICEL returns:
 Original cell was already a primitive cell.
 

 Routine SETGRP: Setting up the symmetry group for a 
 hexagonal supercell.


 Subroutine GETGRP returns: Found  1 space group operations
 (whereof  1 operations were pure point group operations)
 out of a pool of 24 trial point group operations.


The dynamic configuration has the point symmetry C_1 .


Analysis of structural, dynamic, and magnetic symmetry:
=====================================================================
 Subroutine PRICEL returns:
 Original cell was already a primitive cell.
 

 Routine SETGRP: Setting up the symmetry group for a 
 hexagonal supercell.


 Subroutine GETGRP returns: Found  1 space group operations
 (whereof  1 operations were pure point group operations)
 out of a pool of 24 trial point group operations.


The overall configuration has the point symmetry C_1 .


 Subroutine INISYM returns: Found  1 space group operations
 (whereof  1 operations are pure point group operations),
 and found     1 'primitive' translations


----------------------------------------------------------------------------------------

                                     Primitive cell                                     

  volume of cell :    7895.9623

  direct lattice vectors                    reciprocal lattice vectors
     7.911399000-13.702944000  0.000000000     0.063199947 -0.036488509  0.000000000
     7.911399000 13.702944000  0.000000000     0.063199947  0.036488509 -0.000000000
     0.000000000  0.000000000 36.417313000    -0.000000000  0.000000000  0.027459467

  length of vectors
    15.822797111 15.822797111 36.417313000     0.072977015  0.072977015  0.027459467

  position of ions in fractional coordinates (direct lattice)
     0.133591080  0.065350760  0.499710340
     0.667949810  0.732146760  0.670272910
     0.267696390  0.931943410  0.669168000
     0.266421140  0.932507610  0.329613010
     0.333357580  0.865298520  0.499701680
     0.733503600  0.865511130  0.499683780
     0.666400980  0.932555810  0.329630000
     0.667904110  0.931852030  0.669346690
     0.267500020  0.731994450  0.669553380
     0.266303700  0.732372060  0.329633470
     0.666297940  0.732488590  0.329650810
     0.333425450  0.665283760  0.499720670
     0.267508540  0.532305920  0.670631250
     0.266397140  0.532408790  0.329658490
     0.333670510  0.465468470  0.499666900
     0.866393960  0.132571840  0.329634910
     0.868001830  0.131899620  0.669451980
     0.268580990  0.332087950  0.670867370
     0.266277150  0.332394720  0.329636450
     0.333617050  0.265430930  0.499747480
     0.933599320  0.265501210  0.499682570
     0.733507470  0.065436010  0.499707680
     0.533501790  0.065396610  0.499663030
     0.466384410  0.132536240  0.329547180
     0.468065690  0.131489060  0.668971210
     0.666328610  0.132536030  0.329565270
     0.667777320  0.131658650  0.669037170
     0.467826750  0.932097290  0.669101650
     0.466333790  0.932422800  0.329587610
     0.533428320  0.865406210  0.499738470
     0.733463970  0.265340300  0.499657780
     0.466812850  0.732747840  0.669619000
     0.466341750  0.732459630  0.329655010
     0.533517420  0.665490520  0.499646720
     0.666334920  0.332562190  0.329459980
     0.667425160  0.331314660  0.668684140
     0.468582230  0.532681900  0.674415990
     0.466329490  0.532432180  0.329638210
     0.533529630  0.465512360  0.499701450
     0.733492190  0.465487180  0.499700270
     0.666323380  0.532510540  0.329505080
     0.667859880  0.529886000  0.670085700
     0.470006380  0.329359220  0.668058190
     0.466363420  0.332550630  0.329579650
     0.533522820  0.265465410  0.499702030
     0.733436080  0.665559550  0.499666810
     0.866345080  0.332530020  0.329601820
     0.867855930  0.331893590  0.669376980
     0.933659640  0.065546740  0.499703930
     0.267846210  0.131951460  0.669239780
     0.067750420  0.732033980  0.669318490
     0.066419750  0.732451480  0.329620970
     0.133358900  0.665267610  0.499688180
     0.933343960  0.665357660  0.499633130
     0.868559120  0.732356320  0.669060560
     0.067569090  0.531973410  0.669602880
     0.066360710  0.532394380  0.329623840
     0.867760570  0.531885920  0.669497160
     0.133612270  0.465407290  0.499738200
     0.067988120  0.331982600  0.670021520
     0.066393040  0.332453730  0.329635870
     0.133721230  0.265490410  0.499711990
     0.866288100  0.932480250  0.329664580
     0.867934920  0.931949000  0.669386880
     0.068176200  0.132166630  0.669679340
     0.066349100  0.132417680  0.329705950
     0.933517360  0.865406180  0.499670950
     0.866393320  0.532519200  0.329479750
     0.866371750  0.732537240  0.329639030
     0.266429070  0.132516840  0.329610170
     0.333513730  0.065310170  0.499679620
     0.133437460  0.865333580  0.499675940
     0.933401110  0.465300420  0.499660770
     0.067843000  0.932232630  0.669307940
     0.066421840  0.932472400  0.329659070
     0.666699410  0.932095550  0.456622960
     0.666898290  0.331985330  0.542770540
     0.732770610  0.265835460  0.372656090
     0.733654260  0.264844430  0.712032340
     0.866853900  0.132177950  0.456624490
     0.866723590  0.331958790  0.456540850
     0.934466670  0.664943040  0.626157990
     0.933180340  0.666047400  0.286547560
     0.733119470  0.265873770  0.286466720
     0.735177750  0.265247010  0.625954370
     0.866730250  0.732186760  0.456527270
     0.666836770  0.332145890  0.456586740
     0.933910340  0.264946950  0.712682350
     0.866895960  0.932040130  0.542746840
     0.933059160  0.065827790  0.286631400
     0.935143800  0.065570120  0.626400880
     0.934639500  0.665625450  0.712381490
     0.734985740  0.064971060  0.626188920
     0.733080480  0.065848690  0.286569300
     0.666841970  0.131977900  0.456562400
     0.734200490  0.065185000  0.712300120
     0.732985990  0.065986930  0.372710680
     0.933083190  0.865921310  0.372760880
     0.934655980  0.865205890  0.712393730
     0.866908690  0.932189040  0.456631160
     0.666781310  0.132020310  0.542783450
     0.933110840  0.265936890  0.372729920
     0.933058390  0.665676670  0.372673980
     0.934513790  0.065047230  0.712549780
     0.732926000  0.865761160  0.286589270
     0.735297840  0.866385940  0.712749770
     0.732901450  0.865848410  0.372769230
     0.733949170  0.864198920  0.626481640
     0.866877110  0.532073190  0.542731900
     0.666893530  0.932098030  0.542828660
     0.932932010  0.465901750  0.372694210
     0.934009340  0.465046470  0.712526520
     0.866781970  0.531989570  0.456556630
     0.733273430  0.664061600  0.626827360
     0.733070540  0.666016610  0.286564420
     0.666835760  0.732328850  0.456537140
     0.736734980  0.665487310  0.712184290
     0.732802480  0.665653620  0.372694720
     0.666800370  0.732264350  0.542781260
     0.933234620  0.465805440  0.286510850
     0.934485580  0.465354670  0.626336320
     0.935345590  0.265540080  0.626516640
     0.866734740  0.332003100  0.542738890
     0.933128950  0.265928380  0.286574480
     0.866684750  0.732084380  0.542746450
     0.734168710  0.466656820  0.626291080
     0.733019360  0.465938020  0.286352750
     0.666838170  0.532209270  0.456608020
     0.734499570  0.463897600  0.712785830
     0.733090720  0.465913520  0.372529890
     0.866949530  0.132281730  0.542767880
     0.932804170  0.065706940  0.372786200
     0.666903970  0.532395830  0.542838020
     0.534516400  0.864845800  0.626154030
     0.533114990  0.465879110  0.372707150
     0.466686880  0.932017970  0.456626990
     0.134384240  0.665042540  0.626387730
     0.066717870  0.931889220  0.542821990
     0.133198670  0.865785300  0.372742100
     0.134486080  0.865638420  0.712315680
     0.066835260  0.932020210  0.456591280
     0.133091770  0.865799470  0.286597690
     0.134196980  0.865310870  0.626175300
     0.266965570  0.131994830  0.542798100
     0.132994960  0.665651590  0.286577120
     0.333236720  0.065929380  0.372693610
     0.267004260  0.132096100  0.456628730
     0.332989130  0.065829030  0.286546280
     0.334217210  0.065264290  0.626058310
     0.267117970  0.332296370  0.542808000
     0.333023110  0.265817900  0.372702650
     0.337882280  0.265483420  0.712239550
     0.267069290  0.332131230  0.456601640
     0.332996010  0.265912760  0.286569080
     0.334779070  0.065256060  0.712112120
     0.066684840  0.731964180  0.456590210
     0.134019870  0.665548000  0.712561570
     0.132855930  0.665595780  0.372721860
     0.067097590  0.132180070  0.542799610
     0.133298840  0.065749160  0.372763030
     0.134981910  0.065363050  0.712560490
     0.067071640  0.132134220  0.456617000
     0.132990730  0.065780110  0.286609920
     0.134455650  0.065742920  0.626311470
     0.066976680  0.332115470  0.542816770
     0.133024880  0.265890390  0.372778520
     0.133827650  0.264410380  0.713271160
     0.067056960  0.332187130  0.456616450
     0.132906560  0.265651380  0.286587960
     0.136300400  0.266783260  0.627126460
     0.066632300  0.531895280  0.542785760
     0.133091390  0.465785980  0.372742880
     0.133111230  0.465362310  0.713142720
     0.066729780  0.531876570  0.456619090
     0.133124550  0.465723720  0.286602920
     0.135411880  0.465220270  0.626977320
     0.066645830  0.731962730  0.542721290
     0.333487850  0.265759180  0.626296950
     0.267055410  0.531916490  0.542853730
     0.333016870  0.465620460  0.372749990
     0.330383870  0.464049070  0.714698880
     0.534712640  0.264462610  0.712173220
     0.466784100  0.332077830  0.456625290
     0.532828300  0.265852460  0.286448060
     0.534390220  0.263815740  0.625104210
     0.466890510  0.532211420  0.542762680
     0.933103850  0.865964420  0.286614040
     0.466939970  0.532236820  0.456545740
     0.532871230  0.465910840  0.286498300
     0.533156180  0.467543390  0.628634330
     0.466801240  0.731900000  0.542792810
     0.532962130  0.665661770  0.372755440
     0.534826160  0.671987570  0.713317760
     0.466703830  0.732108450  0.456619540
     0.532982550  0.665815180  0.286616330
     0.532471190  0.661285340  0.628414750
     0.466731810  0.932169930  0.542782290
     0.533153350  0.865927950  0.372729110
     0.534636770  0.866731980  0.712410150
     0.533125770  0.265830430  0.372642750
     0.533160170  0.865787350  0.286567370
     0.466910630  0.332125000  0.542868800
     0.532977180  0.065749020  0.286535010
     0.266913940  0.532004090  0.456621860
     0.333001370  0.465715160  0.286624430
     0.338504790  0.467008140  0.629121650
     0.266663560  0.731847070  0.542799620
     0.333005270  0.665690060  0.372761060
     0.334143940  0.666682780  0.713124940
     0.266673940  0.731961050  0.456620460
     0.332962680  0.665659100  0.286617050
     0.333524030  0.663892340  0.626708560
     0.266792330  0.932053800  0.542799770
     0.332997030  0.865795690  0.372696770
     0.334728560  0.866101900  0.712327460
     0.266723980  0.931997430  0.456565570
     0.332884320  0.865724430  0.286550660
     0.334135030  0.864819070  0.626183260
     0.466847400  0.132023480  0.542723590
     0.532998070  0.065847360  0.372662490
     0.534582560  0.065258260  0.712137380
     0.466901970  0.132129890  0.456592120
     0.534606280  0.064835340  0.625853040
     0.934550180  0.865581430  0.626096890
     0.531079400  0.485941830  0.733925090
     0.527266460  0.525651530  0.780473160
     0.590739200  0.616397780  0.796745260
     0.494805260  0.456328480  0.842948520
     0.606212190  0.627823250  0.834555180
     0.559444390  0.547547630  0.857812780
     0.478653240  0.447050190  0.805212630
     0.668549420  0.716378480  0.848648000
     0.576839600  0.557764070  0.894081550
     0.449731640  0.377922790  0.865143510
     0.417207510  0.356286550  0.792322100
     0.644651030  0.698243730  0.776747310
     0.564389380  0.425984860  0.694164360

  ion indices of the primitive-cell ions
   primitive index   ion index
                 1           1
                 2           2
                 3           3
                 4           4
                 5           5
                 6           6
                 7           7
                 8           8
                 9           9
                10          10
                11          11
                12          12
                13          13
                14          14
                15          15
                16          16
                17          17
                18          18
                19          19
                20          20
                21          21
                22          22
                23          23
                24          24
                25          25
                26          26
                27          27
                28          28
                29          29
                30          30
                31          31
                32          32
                33          33
                34          34
                35          35
                36          36
                37          37
                38          38
                39          39
                40          40
                41          41
                42          42
                43          43
                44          44
                45          45
                46          46
                47          47
                48          48
                49          49
                50          50
                51          51
                52          52
                53          53
                54          54
                55          55
                56          56
                57          57
                58          58
                59          59
                60          60
                61          61
                62          62
                63          63
                64          64
                65          65
                66          66
                67          67
                68          68
                69          69
                70          70
                71          71
                72          72
                73          73
                74          74
                75          75
                76          76
                77          77
                78          78
                79          79
                80          80
                81          81
                82          82
                83          83
                84          84
                85          85
                86          86
                87          87
                88          88
                89          89
                90          90
                91          91
                92          92
                93          93
                94          94
                95          95
                96          96
                97          97
                98          98
                99          99
               100         100
               101         101
               102         102
               103         103
               104         104
               105         105
               106         106
               107         107
               108         108
               109         109
               110         110
               111         111
               112         112
               113         113
               114         114
               115         115
               116         116
               117         117
               118         118
               119         119
               120         120
               121         121
               122         122
               123         123
               124         124
               125         125
               126         126
               127         127
               128         128
               129         129
               130         130
               131         131
               132         132
               133         133
               134         134
               135         135
               136         136
               137         137
               138         138
               139         139
               140         140
               141         141
               142         142
               143         143
               144         144
               145         145
               146         146
               147         147
               148         148
               149         149
               150         150
               151         151
               152         152
               153         153
               154         154
               155         155
               156         156
               157         157
               158         158
               159         159
               160         160
               161         161
               162         162
               163         163
               164         164
               165         165
               166         166
               167         167
               168         168
               169         169
               170         170
               171         171
               172         172
               173         173
               174         174
               175         175
               176         176
               177         177
               178         178
               179         179
               180         180
               181         181
               182         182
               183         183
               184         184
               185         185
               186         186
               187         187
               188         188
               189         189
               190         190
               191         191
               192         192
               193         193
               194         194
               195         195
               196         196
               197         197
               198         198
               199         199
               200         200
               201         201
               202         202
               203         203
               204         204
               205         205
               206         206
               207         207
               208         208
               209         209
               210         210
               211         211
               212         212
               213         213
               214         214
               215         215
               216         216
               217         217
               218         218
               219         219
               220         220
               221         221
               222         222
               223         223
               224         224
               225         225
               226         226
               227         227
               228         228
               229         229
               230         230
               231         231
               232         232
               233         233
               234         234
               235         235
               236         236
               237         237

----------------------------------------------------------------------------------------

 
 
 KPOINTS: K-Points                                

Automatic generation of k-mesh.
 Grid dimensions read from file:
 generate k-points for:    3    3    1

 Generating k-lattice:

  Cartesian coordinates                     Fractional coordinates (reciprocal lattice)
     0.021066649 -0.012162836  0.000000000     0.333333333 -0.000000000  0.000000000
     0.021066649  0.012162836 -0.000000000    -0.000000000  0.333333333  0.000000000
    -0.000000000  0.000000000  0.027459467     0.000000000  0.000000000  1.000000000

  Length of vectors
     0.024325672  0.024325672  0.027459467

  Shift w.r.t. Gamma in fractional coordinates (k-lattice)
     0.000000000  0.000000000  0.000000000

 
 Subroutine IBZKPT returns following result:
 ===========================================
 
 Found      5 irreducible k-points:
 
 Following reciprocal coordinates:
            Coordinates               Weight
  0.000000  0.000000  0.000000      1.000000
  0.333333  0.000000  0.000000      2.000000
  0.000000  0.333333  0.000000      2.000000
 -0.333333  0.333333  0.000000      2.000000
  0.333333  0.333333  0.000000      2.000000
 
 Following cartesian coordinates:
            Coordinates               Weight
  0.000000  0.000000  0.000000      1.000000
  0.021067 -0.012163  0.000000      2.000000
  0.021067  0.012163  0.000000      2.000000
  0.000000  0.024326  0.000000      2.000000
  0.042133  0.000000  0.000000      2.000000
 


--------------------------------------------------------------------------------------------------------




 Dimension of arrays:
   k-points           NKPTS =      5   k-points in BZ     NKDIM =      5   number of bands    NBANDS=   1332
   number of dos      NEDOS =    301   number of ions     NIONS =    237
   non local maximal  LDIM  =      6   non local SUM 2l+1 LMDIM =     18
   total plane-waves  NPLWV = ******
   max r-space proj   IRMAX =   3534   max aug-charges    IRDMAX=  11632
   dimension x,y,z NGX =    96 NGY =   96 NGZ =  224
   dimension x,y,z NGXF=   192 NGYF=  192 NGZF=  448
   support grid    NGXF=   192 NGYF=  192 NGZF=  448
   ions per type =              75 150   6   5   1
   NGX,Y,Z   is equivalent  to a cutoff of  10.09, 10.09, 10.23 a.u.
   NGXF,Y,Z  is equivalent  to a cutoff of  20.17, 20.17, 20.45 a.u.

 SYSTEM =  unknown system                          
 POSCAR =  Mo S  C  F  H                           

 Startparameter for this run:
   NWRITE =      2    write-flag & timer
   PREC   = normal    normal or accurate (medium, high low for compatibility)
   ISTART =      0    job   : 0-new  1-cont  2-samecut
   ICHARG =      2    charge: 1-file 2-atom 10-const
   ISPIN  =      2    spin polarized calculation?
   LNONCOLLINEAR =      F non collinear calculations
   LSORBIT =      F    spin-orbit coupling
   INIWAV =      1    electr: 0-lowe 1-rand  2-diag
   LASPH  =      T    aspherical Exc in radial PAW
 Electronic Relaxation 1
   ENCUT  =  600.0 eV  44.10 Ry    6.64 a.u.  31.60 31.60 72.73*2*pi/ulx,y,z
   ENINI  =  600.0     initial cutoff
   ENAUG  =  644.9 eV  augmentation charge cutoff
   NELM   =   2000;   NELMIN=  2; NELMDL=  0     # of ELM steps 
   EDIFF  = 0.1E-05   stopping-criterion for ELM
   LREAL  =      T    real-space projection
   NLSPLINE    = F    spline interpolate recip. space projectors
   LCOMPAT=      F    compatible to vasp.4.4
   GGA_COMPAT  = T    GGA compatible to vasp.4.4-vasp.4.6
   LMAXPAW     = -100 max onsite density
   LMAXMIX     =    2 max onsite mixed and CHGCAR
   VOSKOWN=      0    Vosko Wilk Nusair interpolation
   ROPT   =   -0.00050  -0.00050  -0.00050  -0.00050
   ROPT   =   -0.00050
 Ionic relaxation
   EDIFFG = -.5E-01   stopping-criterion for IOM
   NSW    =   5000    number of steps for IOM
   NBLOCK =      1;   KBLOCK =   5000    inner block; outer block 
   IBRION =      2    ionic relax: 0-MD 1-quasi-New 2-CG
   NFREE  =      1    steps in history (QN), initial steepest desc. (CG)
   ISIF   =      2    stress and relaxation
[...]
      7.90194     -6.41467     18.19619        -0.001849     -0.000337     -0.005704
      9.49020      3.64409     24.38572         0.000629     -0.004757      0.013512
      9.48420      3.64660     12.00515         0.005606     -0.001894      0.003882
      9.48583      1.80842     18.19579        -0.000592     -0.005359      0.006406
      7.90267     -4.57367     11.99805        -0.001906     -0.001948      0.000470
      7.90143     -4.60570     24.35168         0.005089      0.005027      0.004922
      7.92140      0.87835     24.56042         0.002395     -0.004859      0.015312
      7.90160      0.90580     12.00454         0.001450     -0.000455      0.002488
      7.90382     -0.93204     18.19778         0.001099     -0.004987      0.001881
      9.48560     -3.67246     18.19774        -0.005068      0.003352     -0.004911
      9.48445     -1.83363     11.99969        -0.001576      0.000877      0.002839
      9.47585     -1.89065     24.40272        -0.001148     -0.002350      0.006417
      6.32410     -1.92728     24.32888        -0.006927      0.002353     -0.002533
      6.32053     -1.83363     12.00241         0.002413     -0.000531      0.004911
      6.32111     -3.67318     18.19781         0.001114     -0.001020     -0.001557
     11.06801     -0.93011     18.19652         0.000894     -0.000081     -0.001422
      9.48478     -7.31484     12.00321        -0.002260      0.000662      0.001766
      9.49170     -7.34426     24.37691        -0.002575      0.003911      0.006913
      7.90512    -11.89570     18.19787        -0.002962     -0.001215      0.000585
      3.16296     -1.86216     24.37191         0.006308     -0.001888     -0.003823
      6.32741      9.10264     24.37478        -0.001257      0.001796      0.008523
      6.32019      9.12660     12.00391        -0.001973      0.000138     -0.000396
      6.31825      7.28872     18.19730        -0.002662     -0.000779      0.003021
     12.64797     -3.67220     18.19530         0.004881      0.002801      0.002857
     12.66548     -1.86638     24.36539         0.000089     -0.005349      0.020063
      4.74322      6.36371     24.38514         0.000403     -0.006034      0.001690
      4.73699      6.38603     12.00401        -0.003621     -0.004237      0.000732
     11.07316     -4.60247     24.38129         0.000170      0.002990      0.013950
      4.73908      4.54657     18.19912        -0.003069     -0.002096     -0.004574
      3.16433      3.61750     24.40038        -0.002094      0.004137      0.003963
      3.15544      3.64581     12.00445         0.001752      0.001643      0.003550
      3.15832      1.80563     18.19817         0.002363      0.004581     -0.005008
     14.23077      0.90703     12.00550         0.000632     -0.002057     -0.002650
     14.23960      0.87718     24.37727        -0.003848      0.001392      0.016118
      1.58499      0.87686     24.38792        -0.001521     -0.004191      0.010569
      1.57252      0.90533     12.00700        -0.001270     -0.001026     -0.000171
     14.23200     -0.93332     18.19667        -0.002394      0.000257      0.000378
     11.06736     -4.57506     11.99877        -0.000774     -0.002517      0.004795
     12.64961     -1.83393     12.00457         0.000903     -0.000721      0.000909
      3.15622     -1.83499     12.00352        -0.000681     -0.000717     -0.002486
      3.15526     -3.67518     18.19699         0.004083      0.002613     -0.003041
      7.90168     10.02913     18.19686         0.002989      0.001252      0.008019
     11.06569     -6.41436     18.19630         0.000581     -0.002128     -0.005753
      7.91200     11.84468     24.37440         0.000720     -0.004045      0.009336
      7.90265     11.86744     12.00530         0.002666     -0.004445      0.002119
     12.64870      3.63671     16.62898        -0.000909      0.000715      0.001038
      7.90257     -4.58929     19.76624         0.004077      0.003822      0.012617
      7.90037     -6.39839     13.57113         0.003673      0.001961      0.003074
      7.89952     -6.42407     25.93030         0.001233      0.006333      0.007755
      7.90374    -10.06722     16.62904         0.002300     -0.009157     -0.000569
      9.48325     -7.32785     16.62599         0.002233      0.002624      0.004209
     12.65357     -3.69327     22.80299        -0.003655     -0.010171     -0.002822
     12.65213     -3.66051     10.43529        -0.002702     -0.000979     -0.005610
      7.90343     -6.40264     10.43235        -0.005378      0.002274     -0.004384
      7.91476     -6.43943     22.79558         0.001760     -0.009039     -0.001421
     12.64967     -1.84364     16.62550         0.000806     -0.005415     -0.000185
      7.90335     -4.58625     16.62766        -0.000705      0.003682      0.002202
      9.48464     -9.16677     25.95398        -0.006199      0.006029     -0.010529
     14.23210      0.89267     19.76538         0.002474      0.003822      0.001076
      7.90259    -11.88362     10.43835        -0.008067     -0.002697     -0.008305
      7.91705    -11.91572     22.81184         0.000839      0.005677      0.002886
     12.66033     -3.68628     25.94302        -0.000280      0.000770     -0.000022
      6.32878     -9.18117     22.80412         0.004832      0.008380      0.001001
      6.32065     -9.14304     10.43608        -0.001593     -0.000702      0.001134
      6.31978     -7.32921     16.62678        -0.001872      0.003820      0.004269
      6.32426     -9.16748     25.94006         0.002618     -0.002159     -0.003202
      6.32099     -9.13985     13.57312        -0.001275      0.004327     -0.003469
     14.23264     -0.92032     13.57495         0.002655     -0.000839     -0.000762
     14.23943     -0.95167     25.94347         0.006873      0.010366     -0.005147
     14.23338      0.89453     16.62928         0.005058     -0.000249     -0.005409
      6.31964     -7.32780     19.76671         0.007024     -0.008251     -0.000757
      9.48615     -9.14225     13.57382         0.004708      0.002910     -0.005957
     12.64823     -3.66392     13.57178         0.001109     -0.000148     -0.006133
      7.90793    -11.91425     25.94915         0.004577      0.001798     -0.005546
     12.64785      1.82023     10.43681         0.001373      0.006216      0.001616
     12.67156      1.79629     25.95643        -0.000052     -0.007858      0.004882
     12.64835      1.82176     13.57525         0.007853     -0.003515     -0.007293
     12.64359      1.78481     22.81478        -0.002829     -0.008173     -0.008519
     11.06765     -4.58780     19.76484         0.009956     -0.002613      0.002062
     12.65026      3.63408     19.76836        -0.002323      0.000215     -0.000100
     11.06673     -6.39969     13.57252         0.002510     -0.005560      0.001980
     11.06849     -6.42617     25.94830         0.008830     -0.001432     -0.003440
     11.06624     -4.58764     16.62657         0.000468      0.000062      0.001304
     11.05487     -0.94841     22.82737         0.007411     -0.002654     -0.014072
     11.06874     -0.91884     10.43591        -0.001849     -0.006171     -0.002846
     11.06935      0.89745     16.62586        -0.002089      0.007066      0.006345
     11.09354     -0.97630     25.93584        -0.003177     -0.009741     -0.014209
     11.06374     -0.92014     13.57254         0.001199     -0.001768     -0.005382
     11.06856      0.89705     19.76664        -0.009000      0.003262      0.001999
     11.06836     -6.40516     10.43396        -0.001019      0.000430      0.000377
     11.07469     -6.42847     22.80949        -0.000181     -0.002801      0.004507
      9.50069     -9.17831     22.81605         0.004116     -0.001672      0.001669
      9.48369     -7.32740     19.76509        -0.002353      0.001745      0.004696
      9.48622     -9.14261     10.43627        -0.001403      0.001080      0.000648
     12.64850     -1.84442     19.76537         0.000757      0.000234      0.008085
      9.50021     -3.66570     22.80784         0.002746      0.006993     -0.003833
      9.48543     -3.65980     10.42820        -0.001578      0.004450     -0.005114
      9.48614     -1.84481     16.62844        -0.003153     -0.002856     -0.002660
      9.48100     -3.70804     25.95774         0.003973      0.004915      0.004173
      9.48580     -3.66111     13.56654        -0.002100      0.000264     -0.012644
      7.90532    -10.06711     19.76615         0.005122      0.003779      0.002940
      7.89962    -11.88178     13.57587        -0.003022      0.000796     -0.007912
      9.48814     -1.84316     19.76870        -0.003843      0.006780     -0.000099
     11.07091      4.52649     22.80285        -0.004100     -0.007982     -0.001940
      7.90344     -0.92133     13.57299         0.003755     -0.000668     -0.003999
     11.06571      6.37641     16.62913         0.002871     -0.002261      0.001898
      6.32458      7.27158     22.81136        -0.001789     -0.004944      0.001900
      7.90038     11.85539     19.76812        -0.001428      0.000846     -0.004580
      7.90336     10.03859     13.57427         0.001215      0.005301     -0.003752
      7.91238     10.01894     25.94062         0.000834     -0.002688     -0.004706
      7.90234     11.85558     16.62783        -0.000541     -0.001400      0.001641
      7.90263     10.04025     10.43712        -0.002307     -0.000092     -0.003535
      7.90751     10.01841     22.80362        -0.003727      0.005859     -0.003905
      3.15633     -1.84950     19.76725         0.001884     -0.002251     -0.011920
      6.31841      7.29896     10.43637        -0.002312      0.004276      0.004164
      3.15796     -3.66290     13.57250        -0.002464     -0.004839     -0.002673
      3.15744     -1.84864     16.62919        -0.003258     -0.004958     -0.007856
      3.15521     -3.66088     10.43525        -0.001983     -0.001655     -0.002706
      3.16046     -3.68545     22.79936        -0.008277      0.005820     -0.010537
      4.74221      0.89314     19.76761        -0.005660      0.005785      0.001029
      4.73767     -0.92091     13.57283         0.002778     -0.000680     -0.001170
      4.77347     -0.99208     25.93785        -0.000874      0.004220      0.011068
      4.74051      0.89154     16.62820         0.000695      0.001168      0.001354
      4.73821     -0.91924     10.43608        -0.002315      0.000248     -0.007081
      3.16484     -3.69326     25.93321         0.003517      0.008277      0.009803
      6.31843      9.11629     16.62779         0.004130      0.005088     -0.001481
      6.32570      7.28350     25.94958        -0.002404      0.005309      0.004876
      6.31687      7.30010     13.57353        -0.001629      0.004453      0.002961
      1.57657      0.89182     19.76730         0.002111      0.004515      0.001698
      1.57475     -0.92563     13.57503        -0.003534      0.000131     -0.004723
      1.58501     -0.95398     25.94954         0.010482     -0.014047     -0.016115
      1.57600      0.89155     16.62876         0.006162      0.001933     -0.004776
      1.57256     -0.92098     10.43756        -0.002883      0.006939     -0.002013
      1.58385     -0.94157     22.80858        -0.002922     -0.000050     -0.006971
      3.15738      3.63318     19.76793         0.008961     -0.000887      0.007385
      3.15598      1.82065     13.57559         0.009896     -0.008226     -0.008018
      3.15062      1.78937     25.97542         0.009576     -0.008870     -0.006963
      3.15858      3.63306     16.62874        -0.000726     -0.007822      0.005288
      3.15315      1.81899     10.43676        -0.004515      0.001581     -0.000663
      3.18896      1.78800     22.83826         0.000228      0.004150     -0.003454
      4.73519      6.37547     19.76680         0.005836      0.004224      0.003042
      4.73796      4.55890     13.57429        -0.002875     -0.005877     -0.000439
      4.73476      4.55282     25.97074        -0.006646     -0.006198     -0.002083
      4.73581      6.37388     16.62884        -0.008689     -0.005266     -0.000308
      4.73773      4.55759     10.43731        -0.000330      0.000756     -0.009820
      4.75184      4.51935     22.83283         0.001108      0.012999      0.000988
      6.31811      9.11680     19.76445        -0.003288     -0.001916      0.002570
      4.74088     -0.92808     22.80805        -0.015409      0.000822     -0.001762
      6.32099      3.62938     19.76927        -0.004454      0.004961     -0.006035
      6.31834      1.81706     13.57455        -0.003086      0.005432      0.001858
      6.28508      1.83161     26.02741         0.002771     -0.000388     -0.003711
      6.32259     -3.70322     25.93544         0.004140     -0.005564      0.008746
      6.32012     -1.84587     16.62907         0.002776     -0.002143      0.002648
      6.31868     -3.65835     10.43167         0.000455     -0.001151     -0.002241
      6.31493     -3.70767     22.76462        -0.000701     -0.000781     -0.001587
      7.90429      0.89509     19.76596         0.003645     -0.007853     -0.002674
     14.23315     -0.92001     10.43771        -0.000950     -0.004337     -0.004825
      7.90489      0.89476     16.62617        -0.004127     -0.004229      0.003568
      7.90176     -0.91755     10.43350         0.000900     -0.000467     -0.005353
      7.91693     -0.89909     22.89317         0.008981     -0.002744      0.012386
      9.48340      3.63263     19.76706         0.005078      0.008069     -0.004317
      9.48279      1.81838     13.57475        -0.003619      0.004111     -0.001014
      9.54758      1.87952     25.97712         0.003403      0.005806      0.001053
      9.48428      3.63682     16.62886        -0.001483      0.005311     -0.000772
      9.48417      1.82020     10.43780        -0.000937     -0.004671     -0.000286
      9.44428      1.76513     22.88518         0.003742     -0.000406     -0.005780
     11.06727      6.37787     19.76667         0.000852      0.000806     -0.004314
     11.06869      4.55999     13.57379         0.006809     -0.001360      0.002271
     11.08679      4.55068     25.94406        -0.003974     -0.012444      0.001826
      6.32086     -3.66273     13.57065         0.002516     -0.002877      0.004172
     11.06763      4.55797     10.43601         0.000593      0.000316     -0.000604
      6.32149     -1.84696     19.76982         0.011532     -0.002923      0.002012
      4.73676     -6.40240     10.43484         0.000019      0.002337      0.002092
      6.32056      3.63252     16.62894        -0.003992      0.008082     -0.000134
      6.31897      1.81857     10.43809        -0.002648     -0.000815     -0.002994
      6.37273      1.76087     22.91092        -0.001789      0.004168     -0.008621
      7.89962      6.37438     19.76730         0.006459      0.003036      0.002359
      7.90108      4.55876     13.57496        -0.003193     -0.000513     -0.000738
      7.91794      4.55676     25.97009         0.005782      0.000686     -0.001462
      7.90060      6.37580     16.62889        -0.007094     -0.003056      0.000067
      7.90050      4.55892     10.43782         0.002842     -0.000313     -0.004786
      7.89096      4.52702     22.82304         0.005094     -0.007342      0.003381
      9.48455      9.11604     19.76731         0.001437      0.002095     -0.000341
      9.48413      7.30091     13.57261         0.000076      0.005590      0.001214
      9.50025      7.28138     25.94105         0.001666     -0.009315      0.003490
      9.48356      9.11620     16.62689         0.002264     -0.000032     -0.000795
      9.48267      7.30148     10.43541         0.002098     -0.000907     -0.001720
      9.48540      7.27193     22.80391        -0.004803     -0.005790     -0.007799
      4.73791     -4.58807     19.76453         0.001416     -0.000366     -0.002833
      4.73771     -6.40134     13.57137         0.002666     -0.003080     -0.003950
      4.74558     -6.43112     25.93413         0.002304      0.002668      0.001878
      4.73918     -4.58736     16.62786         0.001829      0.000256     -0.004998
      4.74242     -6.43724     22.79189        -0.017280      0.007225     -0.001876
     14.24156     -0.94507     22.80077        -0.002649     -0.007519     -0.006204
      8.04606     -0.61852     26.72758         0.016435     -0.011144      0.023569
      8.33005     -0.02213     28.42274         0.006434     -0.000004     -0.012346
      9.55014      0.35160     29.01532        -0.004803     -0.009806      0.011932
      7.52480     -0.52725     30.69792        -0.018473      0.030915     -0.017407
      9.76295      0.29614     30.39226        -0.004815     -0.006747      0.004287
      8.75786     -0.16302     31.23924        -0.026981      0.011124     -0.024159
      7.32361     -0.43305     29.32368        -0.017053     -0.009459      0.004730
     10.95672      0.65540     30.90548        -0.002868     -0.001434      0.001520
      8.97630     -0.26139     32.56005        -0.015742      0.031825      0.029156
      6.54790     -0.98399     31.50620        -0.015912      0.042371     -0.019088
      6.11942     -0.83480     28.85424        -0.002967      0.015387     -0.019589
     10.62418      0.73438     28.28705         0.009187     -0.015079     -0.002957
      7.83525     -1.89655     25.27960        -0.000462     -0.014548      0.000312
 -----------------------------------------------------------------------------------
    total drift:                               -0.092836      0.021770      0.267299


--------------------------------------------------------------------------------------------------------



  FREE ENERGIE OF THE ION-ELECTRON SYSTEM (eV)
  ---------------------------------------------------
  free  energy   TOTEN  =     -1270.80472126 eV

  energy  without entropy=    -1270.80472126  energy(sigma->0) =    -1270.80472126
 


--------------------------------------------------------------------------------------------------------


    POTLOK:  cpu time     31.4768: real time     31.5498


--------------------------------------------------------------------------------------------------------


 stress matrix after NEB project (eV)
      2.18825      0.46709     -0.58986
      0.46709      3.27057      1.47366
     -0.58986      1.47367     -0.83015
  FORCES: max atom, RMS     0.049121    0.010335
  FORCE total and by dimension    0.159112    0.042371
  Stress total and by dimension    4.652939    3.270574


--------------------------------------------------------------------------------------------------------


  
 reached required accuracy - stopping structural energy minimisation
     LOOP+:  cpu time  11528.2101: real time  11554.6288
    4ORBIT:  cpu time      0.0000: real time      0.0000

 total amount of memory used by VASP MPI-rank0  3563202. kBytes
=======================================================================

   base      :      30000. kBytes
   nonlr-proj:      68695. kBytes
   fftplans  :      40020. kBytes
   grid      :     264219. kBytes
   one-center:       7371. kBytes
   wavefun   :    3152897. kBytes
 
  
  
 General timing and accounting informations for this job:
 ========================================================
  
                  Total CPU time used (sec):    11757.918
                            User time (sec):    11683.997
                          System time (sec):       73.922
                         Elapsed time (sec):    11785.306
  
                   Maximum memory used (kb):     4473864.
                   Average memory used (kb):          N/A
  
                          Minor page faults:     68065799
                          Major page faults:            0
                 Voluntary context switches:        21815
