 vasp.6.3.2 27Jun22 (build Jan 03 2024 23:05:41) complex                        
  
 executed on           IFC15_impi date 2024.07.31  07:42:56
 running  512 mpi-ranks, with    1 threads/rank
 distrk:  each k-point on   64 cores,    8 groups
 distr:  one band on NCORE=  16 cores,    4 groups


--------------------------------------------------------------------------------------------------------


 INCAR:
   ENCUT = 600.00
   EDIFF = 1.00e-06
   IBRION = -1
   NSW = 0
   ALGO = Normal
   ISMEAR = -5
   LORBIT = 11
   LCHARG = .TRUE.
   LWAVE = .FALSE.
   LREAL = Auto
   NELM = 2000
   NCORE = 16
   KPAR = 8
   ISPIN = 2
   GGA = MK
   PARAM1 = 0.1234
   PARAM2 = 1.0
   AGGAC = 0.0
   LUSE_VDW = .TRUE.
   LASPH = .TRUE.
   LDIPOL = .TRUE.
   DIPOL = 0.5 0.5 0.5
   IDIPOL = 3

 POTCAR:    PAW_PBE Mo_sv 02Feb2006               
 POTCAR:    PAW_PBE S 06Sep2000                   
 -----------------------------------------------------------------------------
|                                                                             |
|           W    W    AA    RRRRR   N    N  II  N    N   GGGG   !!!           |
|           W    W   A  A   R    R  NN   N  II  NN   N  G    G  !!!           |
|           W    W  A    A  R    R  N N  N  II  N N  N  G       !!!           |
|           W WW W  AAAAAA  RRRRR   N  N N  II  N  N N  G  GGG   !            |
|           WW  WW  A    A  R   R   N   NN  II  N   NN  G    G                |
|           W    W  A    A  R    R  N    N  II  N    N   GGGG   !!!           |
|                                                                             |
|     You use a magnetic or noncollinear calculation, but did not specify     |
|     the initial magnetic moment with the MAGMOM tag. Note that a            |
|     default of 1 will be used for all atoms. This ferromagnetic setup       |
|     may break the symmetry of the crystal, in particular it may rule        |
|     out finding an antiferromagnetic solution. Thence, we recommend         |
|     setting the initial magnetic moment manually or verifying carefully     |
|     that this magnetic setup is desired.                                    |
|                                                                             |
 -----------------------------------------------------------------------------

 -----------------------------------------------------------------------------
|                                                                             |
|               ----> ADVICE to this user running VASP <----                  |
|                                                                             |
|     You have switched on vdW-DFT.                                           |
|     This routine was written and supplied by Jiri Klimes. We recommend      |
|     that you carefully read and cite the following publications:            |
|       J. Klimes, D.R. Bowler, A. Michelides                                 |
|          J. Phys.: Cond Matt. 22 022201 (2010)                              |
|       J. Klimes, D.R. Bowler, A. Michelides                                 |
|          Phys. Rev. B. 83, 195131 (2011)                                    |
|     and references therein.                                                 |
|                                                                             |
 -----------------------------------------------------------------------------

 POTCAR:    PAW_PBE Mo_sv 02Feb2006               
   SHA256 =  2731df97e41766cc617548c5a8267718fdef1f509ac6bafa01e745abea2bdfaa Mo_sv/POTCAR          
   COPYR  = (c) Copyright 02Feb2006 Georg Kresse                                                    
   COPYR  = This file is part of the software VASP. Any use, copying, and all other rights are regul
   COPYR  = If you do not have a valid VASP license, you may not use, copy or distribute this file. 
   VRHFIN =Mo: 4p5s4d                                                                               
   LEXCH  = PE                                                                                      
   EATOM  =  1862.2866 eV,  136.8742 Ry                                                             
                                                                                                    
   TITEL  = PAW_PBE Mo_sv 02Feb2006                                                                 
   LULTRA =        F    use ultrasoft PP ?                                                          
   IUNSCR =        1    unscreen: 0-lin 1-nonlin 2-no                                               
   RPACOR =    2.200    partial core radius                                                         
   POMASS =   95.940; ZVAL   =   14.000    mass and valenz                                          
   RCORE  =    2.500    outmost cutoff radius                                                       
   RWIGS  =    2.750; RWIGS  =    1.455    wigner-seitz radius (au A)                               
   ENMAX  =  242.676; ENMIN  =  182.007 eV                                                          
   ICORE  =        3    local potential                                                             
   LCOR   =        T    correct aug charges                                                         
   LPAW   =        T    paw PP                                                                      
   EAUG   =  446.014                                                                                
   DEXC   =    0.000                                                                                
   RMAX   =    2.563    core radius for proj-oper                                                   
   RAUG   =    1.300    factor for augmentation sphere                                              
   RDEP   =    2.641    radius for radial grids                                                     
   RDEPT  =    2.031    core radius for aug-charge                                                  
                                                                                                    
   Atomic configuration                                                                             
   11 entries                                                                                       
     n  l   j            E        occ.                                                              
     1  0  0.50    -19819.0341   2.0000                                                             
     2  0  0.50     -2799.0127   2.0000                                                             
     2  1  1.50     -2502.0276   6.0000                                                             
     3  0  0.50      -476.4449   2.0000                                                             
     3  1  1.50      -379.1496   6.0000                                                             
     3  2  2.50      -220.9367  10.0000                                                             
     4  0  0.50       -64.3378   2.0000                                                             
     5  0  0.50        -4.0862   1.0000                                                             
     4  1  1.50       -38.4773   6.0000                                                             
     4  2  2.50        -3.7535   5.0000                                                             
     4  3  2.50        -1.3606   0.0000                                                             
   Description                                                                                      
     l       E           TYP  RCUT    TYP  RCUT                                                     
     0    -64.3377829     23  2.100                                                                 
     0     -4.0861640     23  2.400                                                                 
     1    -38.4772993     23  2.100                                                                 
     1     13.6058260     23  2.100                                                                 
     2     -3.7534941     23  2.400                                                                 
     2     -5.1140767     23  2.400                                                                 
     3     -4.0817478     23  2.500                                                                 
  local pseudopotential read in
  partial core-charges read in
  partial kinetic energy density read in
  atomic valenz-charges read in
  non local Contribution for L=           0  read in
    real space projection operators read in
  non local Contribution for L=           0  read in
    real space projection operators read in
  non local Contribution for L=           1  read in
    real space projection operators read in
  non local Contribution for L=           1  read in
    real space projection operators read in
  non local Contribution for L=           2  read in
    real space projection operators read in
  non local Contribution for L=           2  read in
    real space projection operators read in
    PAW grid and wavefunctions read in
 
   number of l-projection  operators is LMAX  =           6
   number of lm-projection operators is LMMAX =          18
 
 POTCAR:    PAW_PBE S 06Sep2000                   
   SHA256 =  0fc7481fb0695f01bdc6462160264c5c84044ae9ec85a907d398b887a2bc3132 S/POTCAR              
   COPYR  = (c) Copyright 06Sep2000 Georg Kresse                                                    
   COPYR  = This file is part of the software VASP. Any use, copying, and all other rights are regul
   COPYR  = If you do not have a valid VASP license, you may not use, copy or distribute this file. 
   VRHFIN =S : s2p4                                                                                 
   LEXCH  = PE                                                                                      
   EATOM  =   276.8230 eV,   20.3459 Ry                                                             
                                                                                                    
   TITEL  = PAW_PBE S 06Sep2000                                                                     
   LULTRA =        F    use ultrasoft PP ?                                                          
   IUNSCR =        1    unscreen: 0-lin 1-nonlin 2-no                                               
   RPACOR =    1.500    partial core radius                                                         
   POMASS =   32.066; ZVAL   =    6.000    mass and valenz                                          
   RCORE  =    1.900    outmost cutoff radius                                                       
   RWIGS  =    2.200; RWIGS  =    1.164    wigner-seitz radius (au A)                               
   ENMAX  =  258.689; ENMIN  =  194.016 eV                                                          
   ICORE  =        2    local potential                                                             
   LCOR   =        T    correct aug charges                                                         
   LPAW   =        T    paw PP                                                                      
   EAUG   =  335.092                                                                                
   DEXC   =    0.000                                                                                
   RMAX   =    1.942    core radius for proj-oper                                                   
   RAUG   =    1.300    factor for augmentation sphere                                              
   RDEP   =    1.954    radius for radial grids                                                     
   RDEPT  =    1.744    core radius for aug-charge                                                  
                                                                                                    
   Atomic configuration                                                                             
    6 entries                                                                                       
     n  l   j            E        occ.                                                              
     1  0  0.50     -2405.8406   2.0000                                                             
     2  0  0.50      -211.7007   2.0000                                                             
     2  1  1.50      -156.4958   6.0000                                                             
     3  0  0.50       -17.2562   2.0000                                                             
     3  1  0.50        -7.0085   4.0000                                                             
     3  2  1.50        -6.8029   0.0000                                                             
   Description                                                                                      
     l       E           TYP  RCUT    TYP  RCUT                                                     
     0    -17.2561641     23  1.900                                                                 
     0    -15.8743224     23  1.900                                                                 
     1     -7.0085400     23  1.900                                                                 
     1     -2.7779785     23  1.900                                                                 
     2     -6.8029130     23  1.900                                                                 
  local pseudopotential read in
  partial core-charges read in
  partial kinetic energy density read in
  atomic valenz-charges read in
  non local Contribution for L=           0  read in
    real space projection operators read in
  non local Contribution for L=           0  read in
    real space projection operators read in
  non local Contribution for L=           1  read in
    real space projection operators read in
  non local Contribution for L=           1  read in
    real space projection operators read in
    PAW grid and wavefunctions read in
 
   number of l-projection  operators is LMAX  =           4
   number of lm-projection operators is LMMAX =           8
 
 Optimization of the real space projectors (new method)

 maximal supplied QI-value         = 15.12
 optimisation between [QCUT,QGAM] = [ 12.55, 25.10] = [ 44.09,176.36] Ry 
 Optimized for a Real-space Cutoff    1.47 Angstroem

   l    n(q)    QCUT    max X(q) W(low)/X(q) W(high)/X(q)  e(spline) 
   0     11    12.548     3.559    0.18E-04    0.60E-05    0.19E-06
   0     11    12.548    20.730    0.37E-04    0.13E-04    0.98E-07
   1     11    12.548     3.279    0.80E-06    0.70E-06    0.27E-07
   1     11    12.548     4.693    0.72E-04    0.11E-03    0.38E-06
   2     10    12.548    67.616    0.34E-03    0.45E-03    0.54E-06
   2     10    12.548    62.420    0.34E-03    0.45E-03    0.54E-06
 Optimization of the real space projectors (new method)

 maximal supplied QI-value         = 19.84
 optimisation between [QCUT,QGAM] = [ 12.50, 25.00] = [ 43.76,175.03] Ry 
 Optimized for a Real-space Cutoff    1.06 Angstroem

   l    n(q)    QCUT    max X(q) W(low)/X(q) W(high)/X(q)  e(spline) 
   0      8    12.501   187.594    0.26E-03    0.17E-03    0.97E-07
   0      8    12.501   164.243    0.26E-03    0.17E-03    0.96E-07
   1      7    12.501    67.533    0.50E-03    0.61E-03    0.91E-07
   1      7    12.501    50.729    0.48E-03    0.60E-03    0.90E-07
 -----------------------------------------------------------------------------
|                                                                             |
|               ----> ADVICE to this user running VASP <----                  |
|                                                                             |
|     You enforced a specific xc type in the INCAR file but a different       |
|     type was found in the POTCAR file.                                      |
|     I HOPE YOU KNOW WHAT YOU ARE DOING!                                     |
|                                                                             |
 -----------------------------------------------------------------------------

  PAW_PBE Mo_sv 02Feb2006               :
 energy of atom  1       EATOM=-1862.2866
 kinetic energy error for atom=    0.0041 (will be added to EATOM!!)
  PAW_PBE S 06Sep2000                   :
 energy of atom  2       EATOM= -276.8230
 kinetic energy error for atom=    0.0009 (will be added to EATOM!!)
 
 
 POSCAR: Mo S
  positions in direct lattice
  velocities in cartesian coordinates
 exchange correlation table for  LEXCH =       43
   RHO(1)=    0.500       N(1)  =     2000
   RHO(2)=  100.500       N(2)  =     4000

 VTST: version 4.1, (05/19/21)

 CHAIN: initializing optimizer
 
 OPT: Using VASP Dynamics algorithm
 CHAIN: Read ICHAIN            0
 
 POSCAR: Mo S
  positions in direct lattice
  velocities in cartesian coordinates
 


--------------------------------------------------------------------------------------------------------


 ion  position               nearest neighbor table
   1  0.667  0.733  0.500-  37 2.41  66 2.41  39 2.41  65 2.41  36 2.41  40 2.41  11 3.16   3 3.16
                            13 3.16  23 3.16  19 3.16  14 3.16
   2  0.267  0.933  0.500-  72 2.41  48 2.41  49 2.41  71 2.41  47 2.41  51 2.41  25 3.16   4 3.16
                            18 3.16  10 3.16  17 3.16   8 3.16
   3  0.667  0.933  0.500-  37 2.41  45 2.41  32 2.41  36 2.41  67 2.41  33 2.41  10 3.16   1 3.16
                            11 3.16   9 3.16  23 3.16   6 3.16
   4  0.267  0.733  0.500-  46 2.41  72 2.41  70 2.41  52 2.41  71 2.41  69 2.41  18 3.16   2 3.16
                            20 3.16  10 3.16   5 3.16  11 3.16
   5  0.267  0.533  0.500-  68 2.41  58 2.41  70 2.41  60 2.41  57 2.41  69 2.41  20 3.16   7 3.16
                            22 3.16   4 3.16  13 3.16  11 3.16
   6  0.867  0.133  0.500-  30 2.41  32 2.41  42 2.41  35 2.41  33 2.41  29 2.41  23 3.16  24 3.16
                             9 3.16  16 3.16   3 3.16  22 3.16
   7  0.267  0.333  0.500-  56 2.41  68 2.41  59 2.41  55 2.41  60 2.41  50 2.41  22 3.16   5 3.16
                            24 3.16  13 3.16  15 3.16  17 3.16
   8  0.467  0.133  0.500-  74 2.41  62 2.41  49 2.41  73 2.41  51 2.41  61 2.41   9 3.16  12 3.16
                            10 3.16  15 3.16  17 3.16   2 3.16
   9  0.667  0.133  0.500-  32 2.41  28 2.41  74 2.41  33 2.41  73 2.41  26 2.41   8 3.16  10 3.16
                             3 3.16   6 3.16  12 3.16  16 3.16
  10  0.467  0.933  0.500-  45 2.41  72 2.41  74 2.41  67 2.41  71 2.41  73 2.41   3 3.16  11 3.16
                             9 3.16   4 3.16   2 3.16   8 3.16
  11  0.467  0.733  0.500-  66 2.41  45 2.41  70 2.41  65 2.41  69 2.41  67 2.41   1 3.16  10 3.16
                             3 3.16   4 3.16  13 3.16   5 3.16
  12  0.667  0.333  0.500-  43 2.41  62 2.41  28 2.41  61 2.41  44 2.41  26 2.41  15 3.16  14 3.16
                             8 3.16  21 3.16  16 3.16   9 3.16
  13  0.467  0.533  0.500-  64 2.41  66 2.41  68 2.41  63 2.41  60 2.41  65 2.41  14 3.16  15 3.16
                             1 3.16   7 3.16   5 3.16  11 3.16
  14  0.667  0.533  0.500-  43 2.41  39 2.41  64 2.41  44 2.41  63 2.41  40 2.41  13 3.16  12 3.16
                            15 3.16   1 3.16  21 3.16  19 3.16
  15  0.467  0.333  0.500-  62 2.41  59 2.41  64 2.41  61 2.41  50 2.41  63 2.41  12 3.16  13 3.16
                            14 3.16   8 3.16   7 3.16  17 3.16
  16  0.867  0.333  0.500-  42 2.41  41 2.41  28 2.41  29 2.41  26 2.41  38 2.41  21 3.16  20 3.16
                             6 3.16  12 3.16  22 3.16   9 3.16
  17  0.267  0.133  0.500-  49 2.41  54 2.41  59 2.41  51 2.41  53 2.41  50 2.41  24 3.16  25 3.16
                             8 3.16   2 3.16   7 3.16  15 3.16
  18  0.067  0.733  0.500-  46 2.41  48 2.41  27 2.41  52 2.41  47 2.41  31 2.41   4 3.16  25 3.16
                             2 3.16  20 3.16  19 3.16  21 3.16
  19  0.867  0.733  0.500-  27 2.41  39 2.41  75 2.41  31 2.41  40 2.41  34 2.41  23 3.16  25 3.16
                            21 3.16   1 3.16  18 3.16  14 3.16
  20  0.067  0.533  0.500-  58 2.41  46 2.41  41 2.41  57 2.41  52 2.41  38 2.41   5 3.16  22 3.16
                             4 3.16  16 3.16  21 3.16  18 3.16
  21  0.867  0.533  0.500-  41 2.41  27 2.41  43 2.41  38 2.41  44 2.41  31 2.41  16 3.16  12 3.16
                            14 3.16  19 3.16  20 3.16  18 3.16
  22  0.067  0.333  0.500-  56 2.41  58 2.41  42 2.41  55 2.41  57 2.41  29 2.41   7 3.16  20 3.16
                             5 3.16  16 3.16  24 3.16   6 3.16
  23  0.867  0.933  0.500-  75 2.41  37 2.41  30 2.41  34 2.41  36 2.41  35 2.41  19 3.16   1 3.16
                             6 3.16   3 3.16  25 3.16  24 3.16
  24  0.067  0.133  0.500-  54 2.41  56 2.41  30 2.41  53 2.41  55 2.41  35 2.41  17 3.16   7 3.16
                             6 3.16  22 3.16  25 3.16  23 3.16
  25  0.067  0.933  0.500-  48 2.41  75 2.41  54 2.41  47 2.41  34 2.41  53 2.41   2 3.16  18 3.16
                            17 3.16  19 3.16  23 3.16  24 3.16
  26  0.733  0.267  0.568-  16 2.41   9 2.41  12 2.41
  27  0.933  0.667  0.432-  19 2.41  21 2.41  18 2.41
  28  0.733  0.267  0.432-   9 2.41  16 2.41  12 2.41
  29  0.933  0.267  0.568-  16 2.41   6 2.41  22 2.41
  30  0.933  0.067  0.432-   6 2.41  24 2.41  23 2.41
  31  0.933  0.667  0.568-  19 2.41  21 2.41  18 2.41
  32  0.733  0.067  0.432-   9 2.41   6 2.41   3 2.41
  33  0.733  0.067  0.568-   9 2.41   6 2.41   3 2.41
  34  0.933  0.867  0.568-  23 2.41  19 2.41  25 2.41
  35  0.933  0.067  0.568-   6 2.41  24 2.41  23 2.41
  36  0.733  0.867  0.568-   3 2.41  23 2.41   1 2.41
  37  0.733  0.867  0.432-   3 2.41   1 2.41  23 2.41
  38  0.933  0.467  0.568-  21 2.41  16 2.41  20 2.41
  39  0.733  0.667  0.432-  14 2.41  19 2.41   1 2.41
  40  0.733  0.667  0.568-  19 2.41  14 2.41   1 2.41
  41  0.933  0.467  0.432-  21 2.41  16 2.41  20 2.41
  42  0.933  0.267  0.432-  16 2.41   6 2.41  22 2.41
  43  0.733  0.467  0.432-  14 2.41  12 2.41  21 2.41
  44  0.733  0.467  0.568-  14 2.41  21 2.41  12 2.41
  45  0.533  0.867  0.432-  10 2.41   3 2.41  11 2.41
  46  0.133  0.667  0.432-  18 2.41   4 2.41  20 2.41
  47  0.133  0.867  0.568-  25 2.41   2 2.41  18 2.41
  48  0.133  0.867  0.432-  25 2.41  18 2.41   2 2.41
  49  0.333  0.067  0.432-  17 2.41   8 2.41   2 2.41
  50  0.333  0.267  0.568-  15 2.41  17 2.41   7 2.41
  51  0.333  0.067  0.568-  17 2.41   8 2.41   2 2.41
  52  0.133  0.667  0.568-  18 2.41   4 2.41  20 2.41
  53  0.133  0.067  0.568-  24 2.41  17 2.41  25 2.41
  54  0.133  0.067  0.432-  24 2.41  17 2.41  25 2.41
  55  0.133  0.267  0.568-  22 2.41   7 2.41  24 2.41
  56  0.133  0.267  0.432-  22 2.41   7 2.41  24 2.41
  57  0.133  0.467  0.568-  20 2.41   5 2.41  22 2.41
  58  0.133  0.467  0.432-  20 2.41   5 2.41  22 2.41
  59  0.333  0.267  0.432-  15 2.41  17 2.41   7 2.41
  60  0.333  0.467  0.568-   5 2.41  13 2.41   7 2.41
  61  0.533  0.267  0.568-  15 2.41  12 2.41   8 2.41
  62  0.533  0.267  0.432-  15 2.41  12 2.41   8 2.41
  63  0.533  0.467  0.568-  13 2.41  14 2.41  15 2.41
  64  0.533  0.467  0.432-  13 2.41  14 2.41  15 2.41
  65  0.533  0.667  0.568-  11 2.41   1 2.41  13 2.41
  66  0.533  0.667  0.432-  11 2.41   1 2.41  13 2.41
  67  0.533  0.867  0.568-  10 2.41   3 2.41  11 2.41
  68  0.333  0.467  0.432-   5 2.41   7 2.41  13 2.41
  69  0.333  0.667  0.568-  11 2.41   5 2.41   4 2.41
  70  0.333  0.667  0.432-   5 2.41  11 2.41   4 2.41
  71  0.333  0.867  0.568-   2 2.41  10 2.41   4 2.41
  72  0.333  0.867  0.432-   2 2.41   4 2.41  10 2.41
  73  0.533  0.067  0.568-   8 2.41   9 2.41  10 2.41
  74  0.533  0.067  0.432-   8 2.41   9 2.41  10 2.41
  75  0.933  0.867  0.432-  23 2.41  19 2.41  25 2.41
 
  LATTYP: Found a hexagonal cell.
 ALAT       =    15.8227970706
 C/A-ratio  =     1.4623157837
  
  Lattice vectors:
  
 A1 = (   7.9113985353, -13.7029442220,   0.0000000000)
 A2 = (   7.9113985353,  13.7029442220,   0.0000000000)
 A3 = (   0.0000000000,   0.0000000000,  23.1379258980)


Analysis of symmetry for initial positions (statically):
=====================================================================
 Subroutine PRICEL returns following result:
 
  LATTYP: Found a hexagonal cell.
 ALAT       =     3.1645594141
 C/A-ratio  =     7.3115789183
  
  Lattice vectors:
  
 A1 = (   1.5822797071,  -2.7405888444,   0.0000000000)
 A2 = (   1.5822797071,   2.7405888444,   0.0000000000)
 A3 = (   0.0000000000,   0.0000000000,  23.1379258980)
 
  25 primitive cells build up your supercell.
 

 Routine SETGRP: Setting up the symmetry group for a 
 hexagonal supercell.


 Subroutine GETGRP returns: Found  6 space group operations
 (whereof  6 operations were pure point group operations)
 out of a pool of 24 trial point group operations.


The static configuration has the point symmetry C_3v.


Analysis of symmetry for dynamics (positions and initial velocities):
=====================================================================
 Subroutine PRICEL returns following result:
 
  LATTYP: Found a hexagonal cell.
 ALAT       =     3.1645594141
 C/A-ratio  =     7.3115789183
  
  Lattice vectors:
  
 A1 = (   1.5822797071,  -2.7405888444,   0.0000000000)
 A2 = (   1.5822797071,   2.7405888444,   0.0000000000)
 A3 = (   0.0000000000,   0.0000000000,  23.1379258980)
 
  25 primitive cells build up your supercell.
 

 Routine SETGRP: Setting up the symmetry group for a 
 hexagonal supercell.


 Subroutine GETGRP returns: Found  6 space group operations
 (whereof  6 operations were pure point group operations)
 out of a pool of 24 trial point group operations.


The dynamic configuration has the point symmetry C_3v.


Analysis of structural, dynamic, and magnetic symmetry:
=====================================================================
 Subroutine PRICEL returns following result:
 
  LATTYP: Found a hexagonal cell.
 ALAT       =     3.1645594141
 C/A-ratio  =     7.3115789183
  
  Lattice vectors:
  
 A1 = (   1.5822797071,  -2.7405888444,   0.0000000000)
 A2 = (   1.5822797071,   2.7405888444,   0.0000000000)
 A3 = (   0.0000000000,   0.0000000000,  23.1379258980)
 
  25 primitive cells build up your supercell.
 

 Routine SETGRP: Setting up the symmetry group for a 
 hexagonal supercell.


 Subroutine GETGRP returns: Found  6 space group operations
 (whereof  6 operations were pure point group operations)
 out of a pool of 24 trial point group operations.


The overall configuration has the point symmetry C_3v.


 Subroutine INISYM returns: Found  6 space group operations
 (whereof  6 operations are pure point group operations),
 and found    25 'primitive' translations


----------------------------------------------------------------------------------------

                                     Primitive cell                                     

  volume of cell :     200.6696

  direct lattice vectors                    reciprocal lattice vectors
     1.582279707 -2.740588844  0.000000000     0.315999755 -0.182442544  0.000000000
     1.582279707  2.740588844  0.000000000     0.315999755  0.182442544  0.000000000
     0.000000000  0.000000000 23.137925898     0.000000000  0.000000000  0.043219086

  length of vectors
     3.164559414  3.164559414 23.137925898     0.364885087  0.364885087  0.043219086

  position of ions in fractional coordinates (direct lattice)
     0.333333333  0.666666667  0.499983169
     0.666666667  0.333333333  0.567785420
     0.666666667  0.333333333  0.432191555

  ion indices of the primitive-cell ions
   primitive index   ion index
                 1           1
                 2          40
                 3          39

----------------------------------------------------------------------------------------

 
 
 KPOINTS: K-Points                                

Automatic generation of k-mesh.
 Grid dimensions read from file:
 generate k-points for:    9    9    1

 Generating k-lattice:

  Cartesian coordinates                     Fractional coordinates (reciprocal lattice)
     0.007022217 -0.004054279  0.000000000     0.111111111 -0.000000000  0.000000000
     0.007022217  0.004054279  0.000000000    -0.000000000  0.111111111  0.000000000
     0.000000000  0.000000000  0.043219086     0.000000000  0.000000000  1.000000000

  Length of vectors
     0.008108557  0.008108557  0.043219086

  Shift w.r.t. Gamma in fractional coordinates (k-lattice)
     0.000000000  0.000000000  0.000000000

 TETIRR: Found     43 inequivalent tetrahedra from      486
 
 Subroutine IBZKPT returns following result:
 ===========================================
 
 Found     12 irreducible k-points:
 
 Following reciprocal coordinates:
            Coordinates               Weight
  0.000000  0.000000  0.000000      1.000000
  0.111111 -0.000000  0.000000      6.000000
  0.222222  0.000000  0.000000      6.000000
  0.333333  0.000000  0.000000      6.000000
  0.444444  0.000000  0.000000      6.000000
  0.111111  0.111111  0.000000      6.000000
  0.222222  0.111111  0.000000     12.000000
  0.333333  0.111111  0.000000     12.000000
  0.444444  0.111111  0.000000      6.000000
  0.222222  0.222222  0.000000      6.000000
  0.333333  0.222222  0.000000     12.000000
  0.333333  0.333333  0.000000      2.000000
 
 Following cartesian coordinates:
            Coordinates               Weight
  0.000000  0.000000  0.000000      1.000000
  0.007022 -0.004054  0.000000      6.000000
  0.014044 -0.008109  0.000000      6.000000
  0.021067 -0.012163  0.000000      6.000000
  0.028089 -0.016217  0.000000      6.000000
  0.014044 -0.000000  0.000000      6.000000
  0.021067 -0.004054  0.000000     12.000000
  0.028089 -0.008109  0.000000     12.000000
  0.035111 -0.012163  0.000000      6.000000
  0.028089 -0.000000  0.000000      6.000000
  0.035111 -0.004054  0.000000     12.000000
  0.042133 -0.000000  0.000000      2.000000
 


--------------------------------------------------------------------------------------------------------




 Dimension of arrays:
   k-points           NKPTS =     12   k-points in BZ     NKDIM =     12   number of bands    NBANDS=    428
   number of dos      NEDOS =    301   number of ions     NIONS =     75
   non local maximal  LDIM  =      6   non local SUM 2l+1 LMDIM =     18
   total plane-waves  NPLWV = ******
   max r-space proj   IRMAX =   3477   max aug-charges    IRDMAX=  11445
   dimension x,y,z NGX =    96 NGY =   96 NGZ =  140
   dimension x,y,z NGXF=   192 NGYF=  192 NGZF=  280
   support grid    NGXF=   192 NGYF=  192 NGZF=  280
   ions per type =              25  50
   NGX,Y,Z   is equivalent  to a cutoff of  10.09, 10.09, 10.06 a.u.
   NGXF,Y,Z  is equivalent  to a cutoff of  20.17, 20.17, 20.12 a.u.

 SYSTEM =  unknown system                          
 POSCAR =  Mo S                                    

 Startparameter for this run:
   NWRITE =      2    write-flag & timer
   PREC   = normal    normal or accurate (medium, high low for compatibility)
   ISTART =      0    job   : 0-new  1-cont  2-samecut
   ICHARG =      2    charge: 1-file 2-atom 10-const
   ISPIN  =      2    spin polarized calculation?
   LNONCOLLINEAR =      F non collinear calculations
   LSORBIT =      F    spin-orbit coupling
   INIWAV =      1    electr: 0-lowe 1-rand  2-diag
   LASPH  =      T    aspherical Exc in radial PAW
 Electronic Relaxation 1
   ENCUT  =  600.0 eV  44.10 Ry    6.64 a.u.  31.60 31.60 46.21*2*pi/ulx,y,z
   ENINI  =  600.0     initial cutoff
   ENAUG  =  446.0 eV  augmentation charge cutoff
   NELM   =   2000;   NELMIN=  2; NELMDL=  0     # of ELM steps 
   EDIFF  = 0.1E-05   stopping-criterion for ELM
   LREAL  =      T    real-space projection
   NLSPLINE    = F    spline interpolate recip. space projectors
   LCOMPAT=      F    compatible to vasp.4.4
   GGA_COMPAT  = T    GGA compatible to vasp.4.4-vasp.4.6
   LMAXPAW     = -100 max onsite density
   LMAXMIX     =    2 max onsite mixed and CHGCAR
   VOSKOWN=      0    Vosko Wilk Nusair interpolation
   ROPT   =   -0.00050  -0.00050
 Ionic relaxation
   EDIFFG = 0.1E-04   stopping-criterion for IOM
   NSW    =      0    number of steps for IOM
   NBLOCK =      1;   KBLOCK =      1    inner block; outer block 
   IBRION =     -1    ionic relax: 0-MD 1-quasi-New 2-CG
   NFREE  =      0    steps in history (QN), initial steepest desc. (CG)
   ISIF   =      2    stress and relaxation
   IWAVPR =     10    prediction:  0-non 1-charg 2-wave 3-comb
   ISYM   =      2    0-nonsym 1-usesym 2-fastsym
   LCORR  =      T    Harris-Foulkes like correction to forces

   POTIM  = 0.5000    time-step for ionic-motion
   TEIN   =    0.0    initial temperature
   TEBEG  =    0.0;   TEEND  =   0.0 temperature during run
   SMASS  =  -3.00    Nose mass-parameter (am)
   estimated Nose-frequenzy (Omega)   =  0.10E-29 period in steps = 0.13E+47 mass=  -0.572E-26a.u.
   SCALEE = 1.0000    scale energy and forces
   NPACO  =    256;   APACO  = 10.0  distance and # of slots for P.C.
   PSTRESS=    0.0 pullay stress

  Mass of Ions in am
   POMASS =  95.94 32.07
  Ionic Valenz
   ZVAL   =  14.00  6.00
  Atomic Wigner-Seitz radii
   RWIGS  =  -1.00 -1.00
  virtual crystal weights 
   VCA    =   1.00  1.00
   NELECT =     650.0000    total number of electrons
   NUPDOWN=      -1.0000    fix difference up-down

 DOS related values:
   EMIN   =  10.00;   EMAX   =-10.00  energy-range for DOS
   EFERMI =   0.00
   ISMEAR =    -5;   SIGMA  =   0.20  broadening in eV -4-tet -1-fermi 0-gaus

 Electronic relaxation 2 (details)
   IALGO  =     38    algorithm
   LDIAG  =      T    sub-space diagonalisation (order eigenvalues)
   LSUBROT=      F    optimize rotation matrix (better conditioning)
   TURBO    =      0    0=normal 1=particle mesh
   IRESTART =      0    0=no restart 2=restart with 2 vectors
   NREBOOT  =      0    no. of reboots
   NMIN     =      0    reboot dimension
   EREF     =   0.00    reference energy to select bands
   IMIX   =      4    mixing-type and parameters
     AMIX     =   0.40;   BMIX     =  1.00
     AMIX_MAG =   1.60;   BMIX_MAG =  1.00
     AMIN     =   0.10
     WC   =   100.;   INIMIX=   1;  MIXPRE=   1;  MAXMIX= -45

 Intra band minimization:
   WEIMIN = 0.0000     energy-eigenvalue tresh-hold
   EBREAK =  0.58E-09  absolut break condition
   DEPER  =   0.30     relativ break condition  

   TIME   =   0.40     timestep for ELM

  volume/ion in A,a.u.               =      66.89       451.40
  Fermi-wavevector in a.u.,A,eV,Ry     =   0.828397  1.565444  9.336894  0.686242
  Thomas-Fermi vector in A             =   1.940766
 
 Write flags
   LWAVE        =      F    write WAVECAR
   LDOWNSAMPLE  =      F    k-point downsampling of WAVECAR
   LCHARG       =      T    write CHGCAR
   LVTOT        =      F    write LOCPOT, total local potential
   LVHAR        =      F    write LOCPOT, Hartree potential only
   LELF         =      F    write electronic localiz. function (ELF)
   LORBIT       =     11    0 simple, 1 ext, 2 COOP (PROOUT), +10 PAW based schemes


 Dipole corrections
   LMONO  =      F    monopole corrections only (constant potential shift)
   LDIPOL =      T    correct potential (dipole corrections)
   IDIPOL =      3    1-x, 2-y, 3-z, 4-all directions 
   EPSILON=  1.0000000 bulk dielectric constant

 Exchange correlation treatment:
   GGA     =    MK    GGA type
   LEXCH   =    43    internal setting for exchange type
   LIBXC   =     F    Libxc                    
   VOSKOWN =     0    Vosko Wilk Nusair interpolation
   LHFCALC =     F    Hartree Fock is set to
   LHFONE  =     F    Hartree Fock one center treatment
   AEXX    =    0.0000 exact exchange contribution

 vdW DFT:
   LUSE_VDW   =     T    switch on vdW DFT
   Zab_VDW    =-.8491    correlation parameter
   PARAM1     =0.1234
   PARAM2     =1.0000
   PARAM3     =0.0000
   -- rVV10 --
   BPARAM     = 6.3000
   CPARAM     = 0.0093

 Linear response parameters
   LEPSILON=     F    determine dielectric tensor
   LRPA    =     F    only Hartree local field effects (RPA)
   LNABLA  =     F    use nabla operator in PAW spheres
   LVEL    =     F    velocity operator in full k-point grid
   CSHIFT  =0.1000    complex shift for real part using Kramers Kronig
   OMEGAMAX=  -1.0    maximum frequency
   DEG_THRESHOLD= 0.2000000E-02 threshold for treating states as degnerate
   RTIME   =   -0.100 relaxation time in fs
  (WPLASMAI=    0.000 imaginary part of plasma frequency in eV, 0.658/RTIME)
   DFIELD  = 0.0000000 0.0000000 0.0000000 field for delta impulse in time
 
  Optional k-point grid parameters
   LKPOINTS_OPT  =     F    use optional k-point grid
   KPOINTS_OPT_MODE=     1    mode for optional k-point grid
 
 Orbital magnetization related:
   ORBITALMAG=     F  switch on orbital magnetization
   LCHIMAG   =     F  perturbation theory with respect to B field
   DQ        =  0.001000  dq finite difference perturbation B field
   LLRAUG    =     F  two centre corrections for induced B field



--------------------------------------------------------------------------------------------------------


 Static calculation
 charge density and potential will be updated during run
 spin polarized calculation
 Variant of blocked Davidson
 Davidson routine will perform the subspace rotation
 perform sub-space diagonalisation
    after iterative eigenvector-optimisation
 modified Broyden-mixing scheme, WC =      100.0
 initial mixing is a Kerker type mixing with AMIX =  0.4000 and BMIX =      1.0000
 Hartree-type preconditioning will be used
 using additional bands          103
 real space projection scheme for non local part
 use partial core corrections
 calculate Harris-corrections to forces 
   (improved forces if not selfconsistent)
 use gradient corrections 
 use of overlap-Matrix (Vanderbilt PP)
 Fermi weights with tetrahedron method with Bloechl corrections


--------------------------------------------------------------------------------------------------------


  energy-cutoff  :      600.00
  volume of cell :     5016.74
      direct lattice vectors                 reciprocal lattice vectors
     7.911398535-13.702944222  0.000000000     0.063199951 -0.036488509  0.000000000
     7.911398535 13.702944222  0.000000000     0.063199951  0.036488509  0.000000000
     0.000000000  0.000000000 23.137925898     0.000000000  0.000000000  0.043219086

  length of vectors
    15.822797071 15.822797071 23.137925898     0.072977017  0.072977017  0.043219086


 
 k-points in units of 2pi/SCALE and weight: K-Points                                
   0.00000000  0.00000000  0.00000000       0.012
   0.00702222 -0.00405428  0.00000000       0.074
   0.01404443 -0.00810856  0.00000000       0.074
   0.02106665 -0.01216284  0.00000000       0.074
   0.02808887 -0.01621711  0.00000000       0.074
   0.01404443 -0.00000000  0.00000000       0.074
   0.02106665 -0.00405428  0.00000000       0.148
   0.02808887 -0.00810856  0.00000000       0.148
   0.03511108 -0.01216284  0.00000000       0.074
   0.02808887 -0.00000000  0.00000000       0.074
   0.03511108 -0.00405428  0.00000000       0.148
   0.04213330 -0.00000000  0.00000000       0.025
 
 k-points in reciprocal lattice and weights: K-Points                                
   0.00000000  0.00000000  0.00000000       0.012
   0.11111111 -0.00000000  0.00000000       0.074
   0.22222222  0.00000000  0.00000000       0.074
   0.33333333  0.00000000  0.00000000       0.074
   0.44444444  0.00000000  0.00000000       0.074
   0.11111111  0.11111111  0.00000000       0.074
   0.22222222  0.11111111  0.00000000       0.148
   0.33333333  0.11111111  0.00000000       0.148
   0.44444444  0.11111111  0.00000000       0.074
   0.22222222  0.22222222  0.00000000       0.074
   0.33333333  0.22222222  0.00000000       0.148
   0.33333333  0.33333333  0.00000000       0.025
 
 position of ions in fractional coordinates (direct lattice) 
   0.66666667  0.73333333  0.49998317
   0.26666667  0.93333333  0.49998317
   0.66666667  0.93333333  0.49998317
   0.26666667  0.73333333  0.49998317
   0.26666667  0.53333333  0.49998317
   0.86666667  0.13333333  0.49998317
   0.26666667  0.33333333  0.49998317
   0.46666667  0.13333333  0.49998317
   0.66666667  0.13333333  0.49998317
   0.46666667  0.93333333  0.49998317
   0.46666667  0.73333333  0.49998317
   0.66666667  0.33333333  0.49998317
   0.46666667  0.53333333  0.49998317
   0.66666667  0.53333333  0.49998317
   0.46666667  0.33333333  0.49998317
   0.86666667  0.33333333  0.49998317
   0.26666667  0.13333333  0.49998317
   0.06666667  0.73333333  0.49998317
   0.86666667  0.73333333  0.49998317
   0.06666667  0.53333333  0.49998317
   0.86666667  0.53333333  0.49998317
   0.06666667  0.33333333  0.49998317
   0.86666667  0.93333333  0.49998317
   0.06666667  0.13333333  0.49998317
   0.06666667  0.93333333  0.49998317
   0.73333333  0.26666667  0.56778542
   0.93333333  0.66666667  0.43219155
   0.73333333  0.26666667  0.43219155
   0.93333333  0.26666667  0.56778542
   0.93333333  0.06666667  0.43219155
   0.93333333  0.66666667  0.56778542
   0.73333333  0.06666667  0.43219155
   0.73333333  0.06666667  0.56778542
   0.93333333  0.86666667  0.56778542
   0.93333333  0.06666667  0.56778542
   0.73333333  0.86666667  0.56778542
   0.73333333  0.86666667  0.43219155
   0.93333333  0.46666667  0.56778542
   0.73333333  0.66666667  0.43219155
   0.73333333  0.66666667  0.56778542
   0.93333333  0.46666667  0.43219155
   0.93333333  0.26666667  0.43219155
   0.73333333  0.46666667  0.43219155
   0.73333333  0.46666667  0.56778542
   0.53333333  0.86666667  0.43219155
   0.13333333  0.66666667  0.43219155
   0.13333333  0.86666667  0.56778542
   0.13333333  0.86666667  0.43219155
   0.33333333  0.06666667  0.43219155
   0.33333333  0.26666667  0.56778542
   0.33333333  0.06666667  0.56778542
   0.13333333  0.66666667  0.56778542
   0.13333333  0.06666667  0.56778542
   0.13333333  0.06666667  0.43219155
   0.13333333  0.26666667  0.56778542
   0.13333333  0.26666667  0.43219155
   0.13333333  0.46666667  0.56778542
   0.13333333  0.46666667  0.43219155
   0.33333333  0.26666667  0.43219155
   0.33333333  0.46666667  0.56778542
   0.53333333  0.26666667  0.56778542
   0.53333333  0.26666667  0.43219155
   0.53333333  0.46666667  0.56778542
   0.53333333  0.46666667  0.43219155
   0.53333333  0.66666667  0.56778542
   0.53333333  0.66666667  0.43219155
   0.53333333  0.86666667  0.56778542
   0.33333333  0.46666667  0.43219155
   0.33333333  0.66666667  0.56778542
   0.33333333  0.66666667  0.43219155
   0.33333333  0.86666667  0.56778542
   0.33333333  0.86666667  0.43219155
   0.53333333  0.06666667  0.56778542
   0.53333333  0.06666667  0.43219155
   0.93333333  0.86666667  0.43219155
 
 position of ions in cartesian coordinates  (Angst):
  11.07595795  0.91352961 11.56857353
   9.49367824  9.13529615 11.56857353
  12.65823766  3.65411846 11.56857353
   7.91139854  6.39470730 11.56857353
   6.32911883  3.65411846 11.56857353
   7.91139854-10.04882576 11.56857353
   4.74683912  0.91352961 11.56857353
   4.74683912 -4.56764807 11.56857353
   6.32911883 -7.30823692 11.56857353
  11.07595795  6.39470730 11.56857353
   9.49367824  3.65411846 11.56857353
   7.91139854 -4.56764807 11.56857353
   7.91139854  0.91352961 11.56857353
   9.49367824 -1.82705923 11.56857353
   6.32911883 -1.82705923 11.56857353
   9.49367824 -7.30823692 11.56857353
   3.16455941 -1.82705923 11.56857353
   6.32911883  9.13529615 11.56857353
  12.65823766 -1.82705923 11.56857353
   4.74683912  6.39470730 11.56857353
  11.07595795 -4.56764807 11.56857353
   3.16455941  3.65411846 11.56857353
  14.24051736  0.91352961 11.56857353
   1.58227971  0.91352961 11.56857353
   7.91139854 11.87588499 11.56857353
   7.91139854 -6.39470730 13.13737698
  12.65823766 -3.65411846 10.00001616
   7.91139854 -6.39470730 10.00001616
   9.49367824 -9.13529615 13.13737698
   7.91139854-11.87588499 10.00001616
  12.65823766 -3.65411846 13.13737698
   6.32911883 -9.13529615 10.00001616
   6.32911883 -9.13529615 13.13737698
  14.24051736 -0.91352961 13.13737698
   7.91139854-11.87588499 13.13737698
  12.65823766  1.82705923 13.13737698
  12.65823766  1.82705923 10.00001616
  11.07595795 -6.39470730 13.13737698
  11.07595795 -0.91352961 10.00001616
  11.07595795 -0.91352961 13.13737698
  11.07595795 -6.39470730 10.00001616
   9.49367824 -9.13529615 10.00001616
   9.49367824 -3.65411846 10.00001616
   9.49367824 -3.65411846 13.13737698
  11.07595795  4.56764807 10.00001616
   6.32911883  7.30823692 10.00001616
   7.91139854 10.04882576 13.13737698
   7.91139854 10.04882576 10.00001616
   3.16455941 -3.65411846 10.00001616
   4.74683912 -0.91352961 13.13737698
   3.16455941 -3.65411846 13.13737698
   6.32911883  7.30823692 13.13737698
   1.58227971 -0.91352961 13.13737698
   1.58227971 -0.91352961 10.00001616
   3.16455941  1.82705923 13.13737698
   3.16455941  1.82705923 10.00001616
   4.74683912  4.56764807 13.13737698
   4.74683912  4.56764807 10.00001616
   4.74683912 -0.91352961 10.00001616
   6.32911883  1.82705923 13.13737698
   6.32911883 -3.65411846 13.13737698
   6.32911883 -3.65411846 10.00001616
   7.91139854 -0.91352961 13.13737698
   7.91139854 -0.91352961 10.00001616
   9.49367824  1.82705923 13.13737698
   9.49367824  1.82705923 10.00001616
  11.07595795  4.56764807 13.13737698
   6.32911883  1.82705923 10.00001616
   7.91139854  4.56764807 13.13737698
   7.91139854  4.56764807 10.00001616
   9.49367824  7.30823692 13.13737698
   9.49367824  7.30823692 10.00001616
   4.74683912 -6.39470730 13.13737698
   4.74683912 -6.39470730 10.00001616
  14.24051736 -0.91352961 10.00001616
 


--------------------------------------------------------------------------------------------------------


 k-point   1 :   0.0000 0.0000 0.0000  plane waves:  167445
 k-point   2 :   0.1111-0.0000 0.0000  plane waves:  167431
 k-point   3 :   0.2222 0.0000 0.0000  plane waves:  167395
 k-point   4 :   0.3333 0.0000 0.0000  plane waves:  167407
 k-point   5 :   0.4444 0.0000 0.0000  plane waves:  167424
 k-point   6 :   0.1111 0.1111 0.0000  plane waves:  167395
 k-point   7 :   0.2222 0.1111 0.0000  plane waves:  167432
 k-point   8 :   0.3333 0.1111 0.0000  plane waves:  167395
 k-point   9 :   0.4444 0.1111 0.0000  plane waves:  167436
 k-point  10 :   0.2222 0.2222 0.0000  plane waves:  167478
 k-point  11 :   0.3333 0.2222 0.0000  plane waves:  167437
 k-point  12 :   0.3333 0.3333 0.0000  plane waves:  167430

 maximum and minimum number of plane-waves per node :     10516    10428

 maximum number of plane-waves:    167478
 maximum index in each direction: 
   IXMAX=   31   IYMAX=   31   IZMAX=   46
   IXMIN=  -32   IYMIN=  -31   IZMIN=  -46


 real space projection operators:
  total allocation   :      15579.89 KBytes
  max/ min on nodes  :        977.84        970.62


 parallel 3D FFT for wavefunctions:
    minimum data exchange during FFTs selected (reduces bandwidth)
 parallel 3D FFT for charge:
    minimum data exchange during FFTs selected (reduces bandwidth)


 total amount of memory used by VASP MPI-rank0   495768. kBytes
=======================================================================

   base      :      30000. kBytes
   nonlr-proj:       5625. kBytes
   fftplans  :       7969. kBytes
   grid      :      19445. kBytes
   one-center:        155. kBytes
   wavefun   :     432574. kBytes
 
     INWAV:  cpu time      0.0001: real time      0.0001
 Broyden mixing: mesh for mixing (old mesh)
   NGX = 63   NGY = 63   NGZ = 93
  (NGX  =192   NGY  =192   NGZ  =280)
  gives a total of 369117 points

 initial charge density was supplied:
 charge density of overlapping atoms calculated
 number of electron     650.0000000 magnetization      75.0000000
 keeping initial charge density in first step


--------------------------------------------------------------------------------------------------------


 Maximum index for non-local projection operator          244
 Maximum index for augmentation-charges          545 (set IRDMAX)


--------------------------------------------------------------------------------------------------------


 First call to EWALD:  gamma=   0.104
 Maximum number of real-space cells 3x 3x 2
 Maximum number of reciprocal cells 3x 3x 4

    FEWALD:  cpu time      0.0962: real time      0.0962


--------------------------------------- Iteration      1(   1)  ---------------------------------------


vdW kernel read from vdw_kernel.bindat
  0.0000  0.2424  0.5071  0.7962  1.1119  1.4567  1.8333  2.2446  2.6937  3.1842
  3.7199  4.3049  4.9438  5.6415  6.4036  7.2358  8.1446  9.1372 10.2212 11.4050
 12.6979 14.1099 15.6519 17.3360 19.1751 21.1837 23.3773 25.7729 28.3892 31.2465
 34.3669 37.7748 41.4965 45.5611 50.0000
 
    POTLOK:  cpu time      7.6821: real time      7.7040
    SETDIJ:  cpu time      2.8792: real time      2.8815
     EDDAV:  cpu time     46.0069: real time     46.0956
 BZINTS: Fermi energy:   10.166240;  650.000000 electrons
         Band energy:-0.579743E+04;  BLOECHL correction:   -0.007271
       DOS:  cpu time      0.4927: real time      0.4933
    --------------------------------------------
      LOOP:  cpu time     57.0610: real time     57.1744

 eigenvalue-minimisations  : 24640
 total energy-change (2. order) : 0.6097531E+04  (-0.3283819E+05)
 number of electron     650.0000000 magnetization      75.0000000
 augmentation part      650.0000000 magnetization      75.0000000

 DIPCOR: dipole corrections for dipol
 direction  3 min pos     1,
 dipolmoment           0.000000      0.000000      0.000000 electrons x Angstroem
 Tr[quadrupol]    -27382.988860

 energy correction for charged system         0.000000 eV
 dipol+quadrupol energy correction           -0.000000 eV
 added-field ion interaction          0.000000 eV  (added to PSCEN)


 Free energy of the ion-electron system (eV)
  ---------------------------------------------------
  alpha Z        PSCENC =       589.35950860
  Ewald energy   TEWEN  =    184734.82817105
  -Hartree energ DENC   =   -236920.78226187
  -exchange      EXHF   =         0.00000000
  -V(xc)+E(xc)   XCENC  =      2291.15231119
  PAW double counting   =     48353.43607707   -47698.82770368
  entropy T*S    EENTRO =         0.00000000
  eigenvalues    EBANDS =     -5797.43262060
  atomic energy  EATOM  =     60545.79780431
  Solvation  Ediel_sol  =         0.00000000
  ---------------------------------------------------
  free energy    TOTEN  =      6097.53128607 eV

  energy without entropy =     6097.53128607  energy(sigma->0) =     6097.53128607


--------------------------------------------------------------------------------------------------------




--------------------------------------- Iteration      1(   2)  ---------------------------------------


     EDDAV:  cpu time     51.5861: real time     51.6276
 WARNING: Fermi level nearly degenerate with energies of tetrahedron. This may
     result in numerical instabilities because the density changes by tiny
     changes of the Fermi energy. If the calculation converges, the total
     energy will still be reliable. If you notice convergence issues, you can
     try to
     *) Use a Gamma centered k-point grid
     *) Use tetrahedron method without corrections ISMEAR = -4
     *) Don't use tetrahedron method
        ISMEAR = 0 for semiconductors, 1 or 2 for metals

 BZINTS: Fermi energy:   -0.097137;  650.000000 electrons
         Band energy:-0.116316E+05;  BLOECHL correction:   -0.004623
       DOS:  cpu time      0.4613: real time      0.4611
    --------------------------------------------
      LOOP:  cpu time     52.0473: real time     52.0886

 eigenvalue-minimisations  : 28584
 total energy-change (2. order) :-0.5834119E+04  (-0.5642196E+04)
 number of electron     650.0000000 magnetization      75.0000000
 augmentation part      650.0000000 magnetization      75.0000000

 DIPCOR: dipole corrections for dipol
 direction  3 min pos     1,
 dipolmoment           0.000000      0.000000      0.000000 electrons x Angstroem
 Tr[quadrupol]    -27382.988860

 energy correction for charged system         0.000000 eV
 dipol+quadrupol energy correction           -0.000000 eV
 added-field ion interaction          0.000000 eV  (added to PSCEN)


 Free energy of the ion-electron system (eV)
  ---------------------------------------------------
  alpha Z        PSCENC =       589.35950860
  Ewald energy   TEWEN  =    184734.82817105
  -Hartree energ DENC   =   -236920.78226187
  -exchange      EXHF   =         0.00000000
  -V(xc)+E(xc)   XCENC  =      2291.15231119
  PAW double counting   =     48353.43607707   -47698.82770368
  entropy T*S    EENTRO =         0.00000000
  eigenvalues    EBANDS =    -11631.55129532
  atomic energy  EATOM  =     60545.79780431
  Solvation  Ediel_sol  =         0.00000000
  ---------------------------------------------------
  free energy    TOTEN  =       263.41261135 eV

  energy without entropy =      263.41261135  energy(sigma->0) =      263.41261135


--------------------------------------------------------------------------------------------------------




--------------------------------------- Iteration      1(   3)  ---------------------------------------


     EDDAV:  cpu time     45.2310: real time     45.2653
 WARNING: Fermi level nearly degenerate with energies of tetrahedron. This may
     result in numerical instabilities because the density changes by tiny
     changes of the Fermi energy. If the calculation converges, the total
     energy will still be reliable. If you notice convergence issues, you can
     try to
     *) Use a Gamma centered k-point grid
     *) Use tetrahedron method without corrections ISMEAR = -4
     *) Don't use tetrahedron method
        ISMEAR = 0 for semiconductors, 1 or 2 for metals

 BZINTS: Fermi energy:   -2.106004;  650.000000 electrons
         Band energy:-0.122953E+05;  BLOECHL correction:   -0.000759
       DOS:  cpu time      0.4703: real time      0.4701
    --------------------------------------------
      LOOP:  cpu time     45.7013: real time     45.7354

 eigenvalue-minimisations  : 24608
 total energy-change (2. order) :-0.6637172E+03  (-0.6558480E+03)
 number of electron     650.0000000 magnetization      75.0000000
 augmentation part      650.0000000 magnetization      75.0000000

 DIPCOR: dipole corrections for dipol
 direction  3 min pos     1,
 dipolmoment           0.000000      0.000000      0.000000 electrons x Angstroem
 Tr[quadrupol]    -27382.988860

 energy correction for charged system         0.000000 eV
 dipol+quadrupol energy correction           -0.000000 eV
 added-field ion interaction          0.000000 eV  (added to PSCEN)


 Free energy of the ion-electron system (eV)
  ---------------------------------------------------
  alpha Z        PSCENC =       589.35950860
  Ewald energy   TEWEN  =    184734.82817105
  -Hartree energ DENC   =   -236920.78226187
  -exchange      EXHF   =         0.00000000
  -V(xc)+E(xc)   XCENC  =      2291.15231119
  PAW double counting   =     48353.43607707   -47698.82770368
  entropy T*S    EENTRO =         0.00000000
  eigenvalues    EBANDS =    -12295.26844899
  atomic energy  EATOM  =     60545.79780431
  Solvation  Ediel_sol  =         0.00000000
  ---------------------------------------------------
  free energy    TOTEN  =      -400.30454232 eV

  energy without entropy =     -400.30454232  energy(sigma->0) =     -400.30454232


--------------------------------------------------------------------------------------------------------




--------------------------------------- Iteration      1(   4)  ---------------------------------------


     EDDAV:  cpu time     45.3169: real time     45.3515
 BZINTS: Fermi energy:   -2.227809;  650.000000 electrons
         Band energy:-0.123169E+05;  BLOECHL correction:   -0.000000
       DOS:  cpu time      0.3573: real time      0.3581
    --------------------------------------------
      LOOP:  cpu time     45.6743: real time     45.7096

 eigenvalue-minimisations  : 24632
 total energy-change (2. order) :-0.2160544E+02  (-0.2133091E+02)
 number of electron     650.0000000 magnetization      75.0000000
 augmentation part      650.0000000 magnetization      75.0000000

 DIPCOR: dipole corrections for dipol
 direction  3 min pos     1,
 dipolmoment           0.000000      0.000000      0.000000 electrons x Angstroem
 Tr[quadrupol]    -27382.988860

 energy correction for charged system         0.000000 eV
 dipol+quadrupol energy correction           -0.000000 eV
 added-field ion interaction          0.000000 eV  (added to PSCEN)


 Free energy of the ion-electron system (eV)
  ---------------------------------------------------
  alpha Z        PSCENC =       589.35950860
  Ewald energy   TEWEN  =    184734.82817105
  -Hartree energ DENC   =   -236920.78226187
  -exchange      EXHF   =         0.00000000
  -V(xc)+E(xc)   XCENC  =      2291.15231119
  PAW double counting   =     48353.43607707   -47698.82770368
  entropy T*S    EENTRO =         0.00000000
  eigenvalues    EBANDS =    -12316.87388813
  atomic energy  EATOM  =     60545.79780431
  Solvation  Ediel_sol  =         0.00000000
  ---------------------------------------------------
  free energy    TOTEN  =      -421.90998146 eV

  energy without entropy =     -421.90998146  energy(sigma->0) =     -421.90998146


--------------------------------------------------------------------------------------------------------




--------------------------------------- Iteration      1(   5)  ---------------------------------------


     EDDAV:  cpu time     49.0522: real time     49.0894
 BZINTS: Fermi energy:   -2.229777;  650.000000 electrons
         Band energy:-0.123176E+05;  BLOECHL correction:   -0.000000
       DOS:  cpu time      0.3534: real time      0.3531
    CHARGE:  cpu time      3.6906: real time      3.6933
    MIXING:  cpu time      0.0626: real time      0.0626
    --------------------------------------------
      LOOP:  cpu time     53.1588: real time     53.1984

 eigenvalue-minimisations  : 27088
 total energy-change (2. order) :-0.6979598E+00  (-0.6924694E+00)
 number of electron     650.0000242 magnetization      66.7587618
 augmentation part        9.2594134 magnetization      66.4014041

 DIPCOR: dipole corrections for dipol
 direction  3 min pos     1,
 dipolmoment           0.000000      0.000000      0.000000 electrons x Angstroem
 Tr[quadrupol]    -27382.988860

 energy correction for charged system         0.000000 eV
 dipol+quadrupol energy correction           -0.000000 eV
 added-field ion interaction          0.000000 eV  (added to PSCEN)


 Broyden mixing:
  rms(total) = 0.12327E+02    rms(broyden)= 0.12327E+02
  rms(prec ) = 0.12433E+02
  weight for this iteration     100.00

 Free energy of the ion-electron system (eV)
  ---------------------------------------------------
  alpha Z        PSCENC =       589.35950860
  Ewald energy   TEWEN  =    184734.82817105
  -Hartree energ DENC   =   -236920.78226187
  -exchange      EXHF   =         0.00000000
  -V(xc)+E(xc)   XCENC  =      2291.15231119
  PAW double counting   =     48353.43607707   -47698.82770368
  entropy T*S    EENTRO =         0.00000000
  eigenvalues    EBANDS =    -12317.57184796
  atomic energy  EATOM  =     60545.79780431
  Solvation  Ediel_sol  =         0.00000000
  ---------------------------------------------------
  free energy    TOTEN  =      -422.60794129 eV

  energy without entropy =     -422.60794129  energy(sigma->0) =     -422.60794129


--------------------------------------------------------------------------------------------------------




--------------------------------------- Iteration      1(   6)  ---------------------------------------


    POTLOK:  cpu time      6.5018: real time      6.5064
    SETDIJ:  cpu time      2.8244: real time      2.8271
     EDDAV:  cpu time     43.1283: real time     43.1601
 BZINTS: Fermi energy:   -3.382258;  650.000000 electrons
         Band energy:-0.129128E+05;  BLOECHL correction:   -0.000000
       DOS:  cpu time      0.3843: real time      0.3842
    CHARGE:  cpu time      3.6852: real time      3.6882
    MIXING:  cpu time      0.0328: real time      0.0377
    --------------------------------------------
      LOOP:  cpu time     56.5569: real time     56.6038

 eigenvalue-minimisations  : 23184
 total energy-change (2. order) : 0.3372956E+02  (-0.1977459E+02)
 number of electron     650.0000241 magnetization      59.0923104
 augmentation part       24.5610009 magnetization      58.3330454

 DIPCOR: dipole corrections for dipol
 direction  3 min pos     1,
 dipolmoment           0.000000      0.000000      0.000038 electrons x Angstroem
 Tr[quadrupol]    -27381.111408

 energy correction for charged system         0.000000 eV
 dipol+quadrupol energy correction           -0.000000 eV
 added-field ion interaction          0.000000 eV  (added to PSCEN)


 Broyden mixing:
  rms(total) = 0.49933E+01    rms(broyden)= 0.49933E+01
  rms(prec ) = 0.51101E+01
  weight for this iteration     100.00

 eigenvalues of (default mixing * dielectric matrix)
  average eigenvalue GAMMA=   1.0002
  1.0002

 Free energy of the ion-electron system (eV)
  ---------------------------------------------------
  alpha Z        PSCENC =       589.35950889
  Ewald energy   TEWEN  =    184734.82817105
  -Hartree energ DENC   =   -236193.24877927
  -exchange      EXHF   =         0.00000000
  -V(xc)+E(xc)   XCENC  =      2276.84963356
  PAW double counting   =     57066.51821950   -56496.21759918
  entropy T*S    EENTRO =         0.00000000
  eigenvalues    EBANDS =    -12912.76534452
  atomic energy  EATOM  =     60545.79780431
  Solvation  Ediel_sol  =         0.00000000
  ---------------------------------------------------
  free energy    TOTEN  =      -388.87838566 eV

  energy without entropy =     -388.87838566  energy(sigma->0) =     -388.87838566


--------------------------------------------------------------------------------------------------------




--------------------------------------- Iteration      1(   7)  ---------------------------------------


    POTLOK:  cpu time      6.5205: real time      6.5253
    SETDIJ:  cpu time      2.8279: real time      2.8301
     EDDAV:  cpu time     42.4837: real time     42.5162
 BZINTS: Fermi energy:   -2.310136;  650.000000 electrons
         Band energy:-0.122719E+05;  BLOECHL correction:   -0.000000
       DOS:  cpu time      0.3654: real time      0.3653
    CHARGE:  cpu time      3.6724: real time      3.6755
    MIXING:  cpu time      0.0357: real time      0.0367
    --------------------------------------------
      LOOP:  cpu time     55.9057: real time     55.9491

 eigenvalue-minimisations  : 22740
 total energy-change (2. order) :-0.1478327E+01  (-0.6605006E+01)
 number of electron     650.0000241 magnetization      50.5703972
 augmentation part       16.0163318 magnetization      50.3993470

 DIPCOR: dipole corrections for dipol
 direction  3 min pos     1,
 dipolmoment           0.000000      0.000000     -0.001171 electrons x Angstroem
 Tr[quadrupol]    -27389.398828

 energy correction for charged system         0.000000 eV
 dipol+quadrupol energy correction           -0.000000 eV
 added-field ion interaction         -0.000009 eV  (added to PSCEN)


 Broyden mixing:
  rms(total) = 0.34388E+01    rms(broyden)= 0.34388E+01
  rms(prec ) = 0.35081E+01
  weight for this iteration     100.00

 eigenvalues of (default mixing * dielectric matrix)
  average eigenvalue GAMMA=   1.0417
  1.4987  0.5847

 Free energy of the ion-electron system (eV)
  ---------------------------------------------------
  alpha Z        PSCENC =       589.35949940
  Ewald energy   TEWEN  =    184734.82817105
  -Hartree energ DENC   =   -236862.52254752
  -exchange      EXHF   =         0.00000000
  -V(xc)+E(xc)   XCENC  =      2283.53041856
  PAW double counting   =     64496.07487555   -63905.54932327
  entropy T*S    EENTRO =         0.00000000
  eigenvalues    EBANDS =    -12271.87561108
  atomic energy  EATOM  =     60545.79780431
  Solvation  Ediel_sol  =         0.00000000
  ---------------------------------------------------
  free energy    TOTEN  =      -390.35671301 eV

  energy without entropy =     -390.35671301  energy(sigma->0) =     -390.35671301


--------------------------------------------------------------------------------------------------------




--------------------------------------- Iteration      1(   8)  ---------------------------------------


    POTLOK:  cpu time      6.5563: real time      6.5616
    SETDIJ:  cpu time      2.7942: real time      2.7970
     EDDAV:  cpu time     42.3206: real time     42.3585
 BZINTS: Fermi energy:   -2.789238;  650.000000 electrons
         Band energy:-0.124446E+05;  BLOECHL correction:   -0.000000
       DOS:  cpu time      0.3584: real time      0.3584
    CHARGE:  cpu time      3.6694: real time      3.6725
    MIXING:  cpu time      0.0335: real time      0.0343
    --------------------------------------------
      LOOP:  cpu time     55.7325: real time     55.7824

 eigenvalue-minimisations  : 22588
 total energy-change (2. order) : 0.1111323E+01  (-0.1117514E+01)
 number of electron     650.0000241 magnetization      40.7402627
 augmentation part       19.1887166 magnetization      40.5596504

 DIPCOR: dipole corrections for dipol
 direction  3 min pos     1,
 dipolmoment           0.000000      0.000000      0.000191 electrons x Angstroem
 Tr[quadrupol]    -27389.045413

 energy correction for charged system         0.000000 eV
 dipol+quadrupol energy correction           -0.000000 eV
 added-field ion interaction          0.000001 eV  (added to PSCEN)


 Broyden mixing:
  rms(total) = 0.16358E+01    rms(broyden)= 0.16358E+01
  rms(prec ) = 0.16392E+01
  weight for this iteration     100.00

 eigenvalues of (default mixing * dielectric matrix)
  average eigenvalue GAMMA=   1.2501
  2.2669  0.8578  0.6256

 Free energy of the ion-electron system (eV)
  ---------------------------------------------------
  alpha Z        PSCENC =       589.35951009
  Ewald energy   TEWEN  =    184734.82817105
  -Hartree energ DENC   =   -236656.17136988
  -exchange      EXHF   =         0.00000000
  -V(xc)+E(xc)   XCENC  =      2278.34713822
  PAW double counting   =     70171.28387237   -69608.12788905
  entropy T*S    EENTRO =         0.00000000
  eigenvalues    EBANDS =    -12444.56262699
  atomic energy  EATOM  =     60545.79780431
  Solvation  Ediel_sol  =         0.00000000
  ---------------------------------------------------
  free energy    TOTEN  =      -389.24538989 eV

  energy without entropy =     -389.24538989  energy(sigma->0) =     -389.24538989


--------------------------------------------------------------------------------------------------------




--------------------------------------- Iteration      1(   9)  ---------------------------------------


    POTLOK:  cpu time      6.5135: real time      6.5192
    SETDIJ:  cpu time      2.8229: real time      2.8251
     EDDAV:  cpu time     44.6035: real time     44.6437
 BZINTS: Fermi energy:   -2.830538;  650.000000 electrons
         Band energy:-0.124180E+05;  BLOECHL correction:   -0.000000
       DOS:  cpu time      0.3501: real time      0.3501
    CHARGE:  cpu time      3.6748: real time      3.6777
    MIXING:  cpu time      0.0349: real time      0.0363
    --------------------------------------------
      LOOP:  cpu time     57.9996: real time     58.0521

 eigenvalue-minimisations  : 23856
 total energy-change (2. order) :-0.3356478E+01  (-0.2903052E+00)
 number of electron     650.0000240 magnetization      33.0979083
 augmentation part       20.4647801 magnetization      32.8695099

 DIPCOR: dipole corrections for dipol
 direction  3 min pos     1,
 dipolmoment           0.000000      0.000000      0.000037 electrons x Angstroem
 Tr[quadrupol]    -27390.750847

 energy correction for charged system         0.000000 eV
 dipol+quadrupol energy correction           -0.000000 eV
 added-field ion interaction          0.000000 eV  (added to PSCEN)


 Broyden mixing:
  rms(total) = 0.11172E+01    rms(broyden)= 0.11172E+01
  rms(prec ) = 0.11263E+01
  weight for this iteration     100.00

 eigenvalues of (default mixing * dielectric matrix)
  average eigenvalue GAMMA=   1.2224
  2.3689  1.1954  0.6626  0.6626

 Free energy of the ion-electron system (eV)
  ---------------------------------------------------
  alpha Z        PSCENC =       589.35950888
  Ewald energy   TEWEN  =    184734.82817105
  -Hartree energ DENC   =   -236674.00199102
  -exchange      EXHF   =         0.00000000
  -V(xc)+E(xc)   XCENC  =      2276.37228343
  PAW double counting   =     74085.19420910   -73532.19069003
  entropy T*S    EENTRO =         0.00000000
  eigenvalues    EBANDS =    -12417.96116364
  atomic energy  EATOM  =     60545.79780431
  Solvation  Ediel_sol  =         0.00000000
  ---------------------------------------------------
  free energy    TOTEN  =      -392.60186793 eV

  energy without entropy =     -392.60186793  energy(sigma->0) =     -392.60186793


--------------------------------------------------------------------------------------------------------




--------------------------------------- Iteration      1(  10)  ---------------------------------------


    POTLOK:  cpu time      6.5239: real time      6.5294
    SETDIJ:  cpu time      2.8156: real time      2.8180
     EDDAV:  cpu time     43.2356: real time     43.2735
 BZINTS: Fermi energy:   -2.706845;  650.000000 electrons
         Band energy:-0.123388E+05;  BLOECHL correction:   -0.000000
       DOS:  cpu time      0.3729: real time      0.3736
    CHARGE:  cpu time      3.6901: real time      3.6930
    MIXING:  cpu time      0.0381: real time      0.0381
    --------------------------------------------
      LOOP:  cpu time     56.6762: real time     56.7256

 eigenvalue-minimisations  : 23148
 total energy-change (2. order) :-0.2660310E+01  (-0.6922929E-01)
 number of electron     650.0000240 magnetization      19.8577658
 augmentation part       19.5014419 magnetization      19.6666811

 DIPCOR: dipole corrections for dipol
 direction  3 min pos     1,
 dipolmoment           0.000000      0.000000     -0.000506 electrons x Angstroem
 Tr[quadrupol]    -27392.069160

 energy correction for charged system         0.000000 eV
 dipol+quadrupol energy correction           -0.000000 eV
 added-field ion interaction         -0.000004 eV  (added to PSCEN)


 Broyden mixing:
  rms(total) = 0.79175E+00    rms(broyden)= 0.79175E+00
  rms(prec ) = 0.79243E+00
  weight for this iteration     100.00

 eigenvalues of (default mixing * dielectric matrix)
  average eigenvalue GAMMA=   1.3196
  2.6024  1.8136  0.8695  0.6562  0.6562

 Free energy of the ion-electron system (eV)
  ---------------------------------------------------
  alpha Z        PSCENC =       589.35950463
  Ewald energy   TEWEN  =    184734.82817105
  -Hartree energ DENC   =   -236759.96044155
  -exchange      EXHF   =         0.00000000
  -V(xc)+E(xc)   XCENC  =      2276.02927717
  PAW double counting   =     73956.47161269   -73399.00048167
  entropy T*S    EENTRO =         0.00000000
  eigenvalues    EBANDS =    -12338.78762413
  atomic energy  EATOM  =     60545.79780431
  Solvation  Ediel_sol  =         0.00000000
  ---------------------------------------------------
  free energy    TOTEN  =      -395.26217750 eV

  energy without entropy =     -395.26217750  energy(sigma->0) =     -395.26217750


--------------------------------------------------------------------------------------------------------




--------------------------------------- Iteration      1(  11)  ---------------------------------------


    POTLOK:  cpu time      6.4616: real time      6.4674
    SETDIJ:  cpu time      2.8471: real time      2.8493
     EDDAV:  cpu time     43.3132: real time     43.3533
 BZINTS: Fermi energy:   -2.667969;  650.000000 electrons
         Band energy:-0.122877E+05;  BLOECHL correction:   -0.000000
       DOS:  cpu time      0.3360: real time      0.3359
    CHARGE:  cpu time      3.6730: real time      3.6763
    MIXING:  cpu time      0.0373: real time      0.0381
    --------------------------------------------
      LOOP:  cpu time     56.6682: real time     56.7203

 eigenvalue-minimisations  : 23348
 total energy-change (2. order) :-0.3642480E+01  (-0.6132741E-01)
 number of electron     650.0000241 magnetization       6.8149100
 augmentation part       19.4317442 magnetization       6.7237642

 DIPCOR: dipole corrections for dipol
 direction  3 min pos     1,
 dipolmoment           0.000000      0.000000     -0.000226 electrons x Angstroem
 Tr[quadrupol]    -27393.568005

 energy correction for charged system         0.000000 eV
 dipol+quadrupol energy correction           -0.000000 eV
 added-field ion interaction         -0.000002 eV  (added to PSCEN)


 Broyden mixing:
  rms(total) = 0.56709E+00    rms(broyden)= 0.56709E+00
  rms(prec ) = 0.56817E+00
  weight for this iteration     100.00

 eigenvalues of (default mixing * dielectric matrix)
  average eigenvalue GAMMA=   1.7402
  5.2044  2.1880  1.0042  0.7226  0.7226  0.5996

 Free energy of the ion-electron system (eV)
  ---------------------------------------------------
  alpha Z        PSCENC =       589.35950683
  Ewald energy   TEWEN  =    184734.82817105
  -Hartree energ DENC   =   -236813.87695474
  -exchange      EXHF   =         0.00000000
  -V(xc)+E(xc)   XCENC  =      2274.21159121
  PAW double counting   =     73919.60600569   -73361.12773010
  entropy T*S    EENTRO =         0.00000000
  eigenvalues    EBANDS =    -12287.70305214
  atomic energy  EATOM  =     60545.79780431
  Solvation  Ediel_sol  =         0.00000000
  ---------------------------------------------------
  free energy    TOTEN  =      -398.90465791 eV

  energy without entropy =     -398.90465791  energy(sigma->0) =     -398.90465791


--------------------------------------------------------------------------------------------------------




--------------------------------------- Iteration      1(  12)  ---------------------------------------


    POTLOK:  cpu time      6.4867: real time      6.4924
    SETDIJ:  cpu time      2.8547: real time      2.8571
     EDDAV:  cpu time     43.8821: real time     43.9240
 BZINTS: Fermi energy:   -2.609065;  650.000000 electrons
         Band energy:-0.122285E+05;  BLOECHL correction:   -0.000000
       DOS:  cpu time      0.3652: real time      0.3658
    CHARGE:  cpu time      3.6766: real time      3.6798
    MIXING:  cpu time      0.0379: real time      0.0378
    --------------------------------------------
      LOOP:  cpu time     57.3030: real time     57.3570

 eigenvalue-minimisations  : 23588
 total energy-change (2. order) :-0.1937913E+01  (-0.5340600E-01)
 number of electron     650.0000241 magnetization       2.4471887
 augmentation part       19.4148067 magnetization       2.4210956

 DIPCOR: dipole corrections for dipol
 direction  3 min pos     1,
 dipolmoment           0.000000      0.000000     -0.000176 electrons x Angstroem
 Tr[quadrupol]    -27395.161146

 energy correction for charged system         0.000000 eV
 dipol+quadrupol energy correction           -0.000000 eV
 added-field ion interaction         -0.000001 eV  (added to PSCEN)


 Broyden mixing:
  rms(total) = 0.37165E+00    rms(broyden)= 0.37165E+00
  rms(prec ) = 0.37444E+00
  weight for this iteration     100.00

 eigenvalues of (default mixing * dielectric matrix)
  average eigenvalue GAMMA=   1.9083
  6.5556  2.4665  1.5441  0.8225  0.7046  0.6538  0.6113

 Free energy of the ion-electron system (eV)
  ---------------------------------------------------
  alpha Z        PSCENC =       589.35950721
  Ewald energy   TEWEN  =    184734.82817105
  -Hartree energ DENC   =   -236874.24165436
  -exchange      EXHF   =         0.00000000
  -V(xc)+E(xc)   XCENC  =      2273.17087343
  PAW double counting   =     73917.58837067   -73358.84059480
  entropy T*S    EENTRO =         0.00000000
  eigenvalues    EBANDS =    -12228.50504823
  atomic energy  EATOM  =     60545.79780431
  Solvation  Ediel_sol  =         0.00000000
  ---------------------------------------------------
  free energy    TOTEN  =      -400.84257073 eV

  energy without entropy =     -400.84257073  energy(sigma->0) =     -400.84257073


--------------------------------------------------------------------------------------------------------




--------------------------------------- Iteration      1(  13)  ---------------------------------------


    POTLOK:  cpu time      6.5475: real time      6.5530
    SETDIJ:  cpu time      2.8379: real time      2.8403
     EDDAV:  cpu time     42.9043: real time     42.9600
 BZINTS: Fermi energy:   -2.623347;  650.000000 electrons
         Band energy:-0.122297E+05;  BLOECHL correction:   -0.000000
       DOS:  cpu time      0.3352: real time      0.3359
    CHARGE:  cpu time      3.6904: real time      3.6935
    MIXING:  cpu time      0.0392: real time      0.0392
    --------------------------------------------
      LOOP:  cpu time     56.3544: real time     56.4218

 eigenvalue-minimisations  : 22920
 total energy-change (2. order) :-0.4137482E+00  (-0.1512837E-01)
 number of electron     650.0000241 magnetization       0.5056215
 augmentation part       19.6713700 magnetization       0.4965175

 DIPCOR: dipole corrections for dipol
 direction  3 min pos     1,
 dipolmoment           0.000000      0.000000     -0.000292 electrons x Angstroem
 Tr[quadrupol]    -27395.270925

 energy correction for charged system         0.000000 eV
 dipol+quadrupol energy correction           -0.000000 eV
 added-field ion interaction         -0.000002 eV  (added to PSCEN)


 Broyden mixing:
  rms(total) = 0.12172E+00    rms(broyden)= 0.12172E+00
  rms(prec ) = 0.12245E+00
  weight for this iteration     100.00

 eigenvalues of (default mixing * dielectric matrix)
  average eigenvalue GAMMA=   2.0849
  8.4223  2.6014  1.7834  1.1258  0.7825  0.6767  0.6767  0.6106

 Free energy of the ion-electron system (eV)
  ---------------------------------------------------
  alpha Z        PSCENC =       589.35950630
  Ewald energy   TEWEN  =    184734.82817105
  -Hartree energ DENC   =   -236872.14853624
  -exchange      EXHF   =         0.00000000
  -V(xc)+E(xc)   XCENC  =      2272.30263568
  PAW double counting   =     73092.02018760   -72533.72748515
  entropy T*S    EENTRO =         0.00000000
  eigenvalues    EBANDS =    -12229.68860252
  atomic energy  EATOM  =     60545.79780431
  Solvation  Ediel_sol  =         0.00000000
  ---------------------------------------------------
  free energy    TOTEN  =      -401.25631897 eV

  energy without entropy =     -401.25631897  energy(sigma->0) =     -401.25631897


--------------------------------------------------------------------------------------------------------




--------------------------------------- Iteration      1(  14)  ---------------------------------------


    POTLOK:  cpu time      6.4921: real time      6.4976
    SETDIJ:  cpu time      2.8442: real time      2.8469
     EDDAV:  cpu time     39.7158: real time     39.7522
 BZINTS: Fermi energy:   -2.623377;  650.000000 electrons
         Band energy:-0.122263E+05;  BLOECHL correction:   -0.000000
       DOS:  cpu time      0.3724: real time      0.3724
    CHARGE:  cpu time      3.6824: real time      3.6859
    MIXING:  cpu time      0.0423: real time      0.0423
    --------------------------------------------
      LOOP:  cpu time     53.1492: real time     53.1973

 eigenvalue-minimisations  : 20888
 total energy-change (2. order) :-0.4140583E-01  (-0.4016553E-02)
[...]
  285                fftbas_mpi                           13.344177                 3852   7
  286                  fftbas_plan_mpi                      13.332429               3852   8
  287                    dfftw_execute                         5.438174            11556   9
  288                    map_forward                           5.877527             7704   9
  289                      map_gather                            0.904705           3852  10
  290                      m_alltoallv_z                         2.360603           3852  10
  291                      map_scatter                           1.200762           3852  10
  292            rpromu                                2.362190                      972   5
  293              crrexp_mul_wave                       0.734807                 288900   6
  294              rpromu_gemm                           0.763410                  72900   6
  295              m_sumb_d                              0.302419                   3852   6
  296          m_sumb_d                              0.204784                         10   4
  297        m_sumb_d                              0.005918                            7   3
  298        fft3d_mpi                             0.950622                           82   3
  299          fftbrc_mpi                            0.906112                         82   4
  300            fftbas_plan_mpi                       0.905863                       82   5
  301              dfftw_execute                         0.200433                    246   6
  302              map_forward                           0.335230                     80   6
  303                map_gather                            0.067150                   40   7
  304                m_alltoallv_z                         0.239549                   40   7
  305                map_scatter                           0.027773                   40   7
  306              map_backward                          0.320083                     84   6
  307                map_gather                            0.031594                   42   7
  308                m_alltoallv_z                         0.160341                   42   7
  309                map_scatter                           0.127247                   42   7
  310        forhar                                0.486080                            2   3
  311          m_sumb_d                              0.000281                          2   4
  312        strehar                               0.013609                            1   3
  313          m_sumb_d                              0.002874                          1   4
  314        chggra                                0.044725                            1   3
  315          fft3d_mpi                             0.031250                          3   4
  316            fftbrc_mpi                            0.029557                        3   5
  317              fftbas_plan_mpi                       0.029545                      3   6
  318                dfftw_execute                         0.007307                    9   7
  319                map_backward                          0.007802                    2   7
  320                  map_gather                            0.000887                  1   8
  321                  m_alltoallv_z                         0.002848                  1   8
  322                  map_scatter                           0.004039                  1   8
  323                map_forward                           0.012553                    4   7
  324                  map_gather                            0.005283                  2   8
  325                  m_alltoallv_z                         0.005943                  2   8
  326                  map_scatter                           0.001283                  2   8
  327          m_sumb_d                              0.000097                          2   4
  328          pothar                                0.003287                          1   4
  329            m_sumb_d                              0.000593                        1   5
  330        brmix                                 0.574349                            1   3
  331          m_sumb_d                              0.001951                          6   4
  332          brpre                                 0.000332                          2   4
  333          setg0                                 0.006559                          1   4
  334          broyd                                 0.047719                          1   4
  335            m_sumb_d                              0.003698                       35   5
  336            brget                                 0.009942                      177   5
  337            brsav                                 0.003574                       33   5
  338          m_bcast_z                             0.507894                          1   4
  339          m_bcast_d                             0.000370                          1   4
  340        m_bcast_d                             0.008240                            2   3
  341      potlok                                6.484744                              1   2
  342        fft3d_mpi                             0.897979                           86   3
  343          fftbrc_mpi                            0.851503                         86   4
  344            fftbas_plan_mpi                       0.851179                       86   5
  345              dfftw_execute                         0.208598                    258   6
  346              map_forward                           0.264784                     88   6
  347                map_gather                            0.074559                   46   7
  348                m_alltoallv_z                         0.158361                   46   7
  349                map_scatter                           0.030861                   46   7
  350              map_backward                          0.325026                     84   6
  351                map_gather                            0.032222                   42   7
  352                m_alltoallv_z                         0.164091                   42   7
  353                map_scatter                           0.127900                   42   7
  354        m_sumb_d                              0.017944                            8   3
  355        fewald                                0.001533                            2   3
  356          rsp                                   0.001316                          2   4
  357          rcp                                   0.000190                          2   4
  358        pothar                                0.002474                            1   3
  359          m_sumb_d                              0.000782                          1   4
  360        m_bcast_d                             0.003610                            2   3
  361      potlok_metagga                        0.000001                              1   2
  362      set_dd_magatom                        0.000001                              1   2
  363      set_dd_paw                            2.779533                              1   2
  364        set_rsgf_all                          0.000001                            1   3
  365        m_sumb_d                              2.779185                            8   3
  366      densta                              135.089566                              1   2
  367        m_bcast_z                             0.000749                            1   3
 
 Flat profile
 ============
 
             routine name                   CPU           calls
 ---------------------------------------------------------------
 total_time                            603.568136           1
 ggemm                                 435.024767       28998
 dfftw_execute                         194.219692      400158
 potlok                                168.849566          30
 densta                                147.186003          34
 m_sumb_d                              132.188847      252605
 orth1                                 126.512411       65666
 eddav                                 102.307516          33
 m_alltoallv_z                          85.245622      133504
 fftbas_plan_mpi                        68.193107      133386
 m_alltoall_d                           64.845479      318776
 set_charge                             53.491146          29
 fftwav_mpi                             50.794992       87384
 m_bcast_z                              48.249227       34809
 map_scatter                            45.855194      133504
 map_gather                             42.583861      133504
 vhamil                                 36.865324       43216
 map_forward                            30.953246      177502
 sphpro_fast                            21.965053           2
 lincom                                 19.266222         136
 lapack                                 15.018703       21870
 crrexp_mul_work_add                    11.856843     3241200
 gemm                                   11.293964     1600950
 rpromu_gemm                             9.018146     1181550
 eccp                                    7.650647       14124
 w1_copy                                 7.592550      129648
 racc0mu                                 7.502550       21346
 crrexp_mul_wave                         6.735961     2599200
 redis_pw                                6.343407      115796
 rpromu                                  5.862893       15754
 pw_charge                               5.609256        9512
 force_and_stress                        5.508925           1
 fftext_mpi                              5.024599       43216
 kinhamil                                3.317526       43216
 apply_precond                           2.659735       29092
 m_bcast_d                               2.281722       43835
 fft3d_mpi                               1.996877      133386
 redis_proj                              1.784602      144892
 setup_precond                           1.630761       14124
 overl                                   1.536790       72312
 augmentation_charge                     1.275156          29
 setdij_                                 1.053305          57
 map_backward                            0.831342       89270
 overl1                                  0.705785       43216
 hamiltmu                                0.598927       21870
 newband                                 0.533905       22002
 phaser                                  0.515467         158
 forhar                                  0.485799           2
 elmin                                   0.421983           1
 fftbas_mpi                              0.403391      130600
 broyd                                   0.344444          29
 brmix                                   0.278204          29
 raccmu_                                 0.268326       21870
 racc0                                   0.257621         524
 soft_charge                             0.242368          29
 forloc                                  0.241002           1
 rpro1                                   0.210137         392
 inisym                                  0.208385           1
 setg0                                   0.206165          31
 rspher_all                              0.158201          14
 stufak                                  0.154466           1
 brget                                   0.143166        2340
 w1_projall                              0.104268       14742
 choleski                                0.099296           4
 brsav                                   0.080785         556
 depsum                                  0.075303          29
 truncate_high_frequency_w1              0.056020       57340
 pothar                                  0.053358          31
 rpro_isp                                0.050890          26
 rsp                                     0.042080          61
 strnlr                                  0.030792           1
 strkin                                  0.026375           1
 strelo                                  0.013204           1
 set_dd_paw                              0.011281          31
 strehar                                 0.010735           1
 chggra                                  0.010091           1
 fornlr                                  0.009954           1
 posmap                                  0.008992           2
 fft_gq                                  0.008260          29
 fftbrc_mpi                              0.007993        2786
 brpre                                   0.007764          58
 fewald                                  0.006651          61
 rcp                                     0.006186          61
 orthch                                  0.005419           1
 brgrid                                  0.003251           1
 vectorpot                               0.000612          30
 crpa_reader                             0.000281           1
 fordep                                  0.000187           1
 potlok_metagga                          0.000182          30
 proall                                  0.000068           1
 set_rsgf_all                            0.000061          31
 set_dd_magatom                          0.000036          31
 rotate_active_occupied_orbital          0.000017           1
 redis_pw_over_bands                     0.000001           1
 ---------------------------------------------------------------
  summed up times    2608.65980410576     
 
 Accumulative profile
 ====================
 
             routine name                   CPU           calls
 ---------------------------------------------------------------
 total_time                           2608.659804           1
 elmin                                1741.270848           1
 eddav                                1351.226341          33
 fft3d_mpi                             470.290325      133386
 fftbas_plan_mpi                       467.882065      133386
 fftbas_mpi                            440.315258      130600
 ggemm                                 435.024767       28998
 fftwav_mpi                            353.194249       87384
 hamiltmu                              221.264475       21870
 potlok                                196.812013          30
 dfftw_execute                         194.219692      400158
 densta                                147.199266          34
 kinhamil                              146.789057       43216
 fftext_mpi                            143.471532       43216
 map_forward                           140.849544      177502
 m_sumb_d                              132.188847      252605
 orth1                                 126.512411       65666
 set_charge                            106.642159          29
 set_dd_paw                             87.067003          31
 m_alltoallv_z                          85.245622      133504
 newband                                76.951209       22002
 m_alltoall_d                           64.845479      318776
 map_backward                           64.619721       89270
 redis_pw                               52.440151      115796
 m_bcast_z                              48.249227       34809
 map_scatter                            45.855194      133504
 soft_charge                            44.995635          29
 map_gather                             42.583861      133504
 force_and_stress                       39.896371           1
 raccmu_                                37.011166       21870
 vhamil                                 36.865324       43216
 racc0mu                                35.548479       21346
 fftbrc_mpi                             27.978191        2786
 rpro_isp                               26.519239          26
 rpromu                                 25.070508       15754
 sphpro_fast                            22.397667           2
 w1_projall                             22.101237       14742
 redis_proj                             20.533336      144892
 lincom                                 19.266222         136
 strnlr                                 18.744789           1
 lapack                                 15.018703       21870
 crrexp_mul_work_add                    11.856843     3241200
 gemm                                   11.293964     1600950
 rpromu_gemm                             9.018146     1181550
 eccp                                    8.406038       14124
 w1_copy                                 7.592550      129648
 crrexp_mul_wave                         6.735961     2599200
 fornlr                                  6.215092           1
 pw_charge                               5.609256        9512
 depsum                                  4.124491          29
 apply_precond                           2.659735       29092
 m_bcast_d                               2.281722       43835
 setup_precond                           2.154556       14124
 brmix                                   2.083483          29
 proall                                  2.070100           1
 augmentation_charge                     2.035431          29
 overl                                   1.536790       72312
 setdij_                                 1.171216          57
 orthch                                  1.135402           1
 overl1                                  0.705785       43216
 broyd                                   0.618531          29
 phaser                                  0.515467         158
 racc0                                   0.488576         524
 forhar                                  0.486080           2
 rpro1                                   0.355274         392
 forloc                                  0.241508           1
 fft_gq                                  0.223053          29
 inisym                                  0.217377           1
 setg0                                   0.206165          31
 rspher_all                              0.158201          14
 stufak                                  0.154466           1
 fewald                                  0.143280          61
 brget                                   0.143166        2340
 fordep                                  0.120466           1
 choleski                                0.099296           4
 pothar                                  0.083954          31
 brsav                                   0.080785         556
 truncate_high_frequency_w1              0.056020       57340
 chggra                                  0.044725           1
 rsp                                     0.042080          61
 strkin                                  0.029540           1
 strelo                                  0.014321           1
 strehar                                 0.013609           1
 posmap                                  0.008992           2
 brpre                                   0.007764          58
 rcp                                     0.006186          61
 brgrid                                  0.003251           1
 vectorpot                               0.000612          30
 crpa_reader                             0.000281           1
 potlok_metagga                          0.000182          30
 set_rsgf_all                            0.000061          31
 set_dd_magatom                          0.000036          31
 rotate_active_occupied_orbital          0.000017           1
 redis_pw_over_bands                     0.000001           1
 ---------------------------------------------------------------
 
Profiling took   7.214989  3.595627  0.009735  0.009006 seconds
Profiling took   7.077367 seconds
